<?xml version="1.0" encoding="UTF-8"?>

<!-- generated on Mi 05 Mai 2021 12:04:56 CEST by Eclipse SUMO GUI Version v1_7_0+1228-0b1a97d77e
<configuration xmlns:xsi="http://www.w3.org/2001/XMLSchema-instance" xsi:noNamespaceSchemaLocation="http://sumo.dlr.de/xsd/sumoConfiguration.xsd">

    <input>
        <net-file value="../alex_traci/alex_2_blunt.net.xml"/>
        <route-files value="../alex_traci/alex_2.trips.xml"/>
    </input>

    <output>
        <fcd-output value="../alex_traci/sim_results/fcd_out_1.50_2.00_3.00_80.xml"/>
        <fcd-output.geo value="true"/>
    </output>

    <time>
        <begin value="0"/>
        <end value="2000"/>
    </time>

    <fcd_device>
        <device.fcd.explicit value="vehDist"/>
    </fcd_device>

    <traci_server>
        <remote-port value="51355"/>
    </traci_server>

</configuration>
-->

<fcd-export xmlns:xsi="http://www.w3.org/2001/XMLSchema-instance" xsi:noNamespaceSchemaLocation="http://sumo.dlr.de/xsd/fcd_file.xsd">
    <timestep time="0.00">
        <vehicle id="flow_0.0" x="13.418536" y="52.521557" angle="296.793450" type="vehDist49" speed="0.000000" pos="1.700000" lane="288355301_0" slope="0.000000"/>
        <vehicle id="flow_1.0" x="13.415404" y="52.522355" angle="128.156192" type="vehDist58" speed="0.000000" pos="1.700000" lane="301733776_0" slope="0.000000"/>
        <vehicle id="flow_2.0" x="13.415544" y="52.520882" angle="34.850711" type="vehDist4" speed="0.000000" pos="1.700000" lane="24540242#1_0" slope="0.000000"/>
    </timestep>
    <timestep time="1.00">
        <vehicle id="flow_0.0" x="13.418531" y="52.521559" angle="296.793450" type="vehDist49" speed="0.408596" pos="2.108596" lane="288355301_0" slope="0.000000"/>
        <vehicle id="flow_1.0" x="13.415408" y="52.522353" angle="128.156192" type="vehDist58" speed="0.338089" pos="2.038089" lane="301733776_0" slope="0.000000"/>
        <vehicle id="flow_2.0" x="13.415549" y="52.520887" angle="34.850711" type="vehDist4" speed="0.636779" pos="2.336779" lane="24540242#1_0" slope="0.000000"/>
    </timestep>
    <timestep time="2.00">
        <vehicle id="flow_0.0" x="13.418517" y="52.521563" angle="296.793450" type="vehDist49" speed="1.005486" pos="3.114082" lane="288355301_0" slope="0.000000"/>
        <vehicle id="flow_1.0" x="13.415417" y="52.522349" angle="128.156192" type="vehDist58" speed="0.748711" pos="2.786800" lane="301733776_0" slope="0.000000"/>
        <vehicle id="flow_2.0" x="13.415558" y="52.520895" angle="34.850711" type="vehDist4" speed="1.143496" pos="3.480275" lane="24540242#1_0" slope="0.000000"/>
    </timestep>
    <timestep time="3.00">
        <vehicle id="flow_0.0" x="13.418497" y="52.521569" angle="296.793450" type="vehDist49" speed="1.484643" pos="4.598726" lane="288355301_0" slope="0.000000"/>
        <vehicle id="flow_1.0" x="13.415431" y="52.522343" angle="128.156192" type="vehDist58" speed="1.168797" pos="3.955597" lane="301733776_0" slope="0.000000"/>
        <vehicle id="flow_2.0" x="13.415572" y="52.520908" angle="34.850711" type="vehDist4" speed="1.699037" pos="5.179311" lane="24540242#1_0" slope="0.000000"/>
    </timestep>
    <timestep time="4.00">
        <vehicle id="flow_0.0" x="13.418469" y="52.521577" angle="296.793450" type="vehDist49" speed="2.111681" pos="6.710406" lane="288355301_0" slope="0.000000"/>
        <vehicle id="flow_1.0" x="13.415450" y="52.522334" angle="128.156192" type="vehDist58" speed="1.628951" pos="5.584548" lane="301733776_0" slope="0.000000"/>
        <vehicle id="flow_2.0" x="13.415589" y="52.520924" angle="34.850711" type="vehDist4" speed="2.102737" pos="7.282049" lane="24540242#1_0" slope="0.000000"/>
    </timestep>
    <timestep time="5.00">
        <vehicle id="flow_0.0" x="13.418432" y="52.521588" angle="296.793450" type="vehDist49" speed="2.806817" pos="9.517224" lane="288355301_0" slope="0.000000"/>
        <vehicle id="flow_1.0" x="13.415474" y="52.522324" angle="128.156192" type="vehDist58" speed="1.976371" pos="7.560920" lane="301733776_0" slope="0.000000"/>
        <vehicle id="flow_2.0" x="13.415610" y="52.520943" angle="34.850711" type="vehDist4" speed="2.529374" pos="9.811423" lane="24540242#1_0" slope="0.000000"/>
    </timestep>
    <timestep time="6.00">
        <vehicle id="flow_0.0" x="13.418388" y="52.521601" angle="296.793450" type="vehDist49" speed="3.306344" pos="12.823567" lane="288355301_0" slope="0.000000"/>
        <vehicle id="flow_1.0" x="13.415503" y="52.522310" angle="128.156192" type="vehDist58" speed="2.488180" pos="10.049100" lane="301733776_0" slope="0.000000"/>
        <vehicle id="flow_2.0" x="13.415634" y="52.520965" angle="34.850711" type="vehDist4" speed="3.003159" pos="12.814582" lane="24540242#1_0" slope="0.000000"/>
    </timestep>
    <timestep time="7.00">
        <vehicle id="flow_0.0" x="13.418338" y="52.521615" angle="296.793450" type="vehDist49" speed="3.716432" pos="16.540000" lane="288355301_0" slope="0.000000"/>
        <vehicle id="flow_1.0" x="13.415539" y="52.522293" angle="128.156192" type="vehDist58" speed="3.099525" pos="13.148625" lane="301733776_0" slope="0.000000"/>
        <vehicle id="flow_2.0" x="13.415662" y="52.520990" angle="34.850711" type="vehDist4" speed="3.383835" pos="16.198417" lane="24540242#1_0" slope="0.000000"/>
    </timestep>
    <timestep time="8.00">
        <vehicle id="flow_0.0" x="13.418279" y="52.521632" angle="296.793450" type="vehDist49" speed="4.448954" pos="20.988954" lane="288355301_0" slope="0.000000"/>
        <vehicle id="flow_1.0" x="13.415581" y="52.522275" angle="128.156192" type="vehDist58" speed="3.514117" pos="16.662741" lane="301733776_0" slope="0.000000"/>
        <vehicle id="flow_2.0" x="13.415693" y="52.521019" angle="34.850711" type="vehDist4" speed="3.841300" pos="20.039717" lane="24540242#1_0" slope="0.000000"/>
    </timestep>
    <timestep time="9.00">
        <vehicle id="flow_0.0" x="13.418211" y="52.521652" angle="296.793450" type="vehDist49" speed="5.109235" pos="26.098189" lane="288355301_0" slope="0.000000"/>
        <vehicle id="flow_1.0" x="13.415626" y="52.522254" angle="128.156192" type="vehDist58" speed="3.835782" pos="20.498523" lane="301733776_0" slope="0.000000"/>
        <vehicle id="flow_2.0" x="13.415727" y="52.521051" angle="34.850711" type="vehDist4" speed="4.225896" pos="24.265612" lane="24540242#1_0" slope="0.000000"/>
    </timestep>
    <timestep time="10.00">
        <vehicle id="flow_0.0" x="13.418135" y="52.521674" angle="296.793450" type="vehDist49" speed="5.690031" pos="31.788220" lane="288355301_0" slope="0.000000"/>
        <vehicle id="flow_1.0" x="13.415678" y="52.522230" angle="128.156192" type="vehDist58" speed="4.428831" pos="24.927354" lane="301733776_0" slope="0.000000"/>
        <vehicle id="flow_2.0" x="13.415766" y="52.521086" angle="34.850711" type="vehDist4" speed="4.750376" pos="29.015988" lane="24540242#1_0" slope="0.000000"/>
    </timestep>
    <timestep time="11.00">
        <vehicle id="flow_0.0" x="13.418057" y="52.521697" angle="296.793450" type="vehDist49" speed="5.847957" pos="37.636176" lane="288355301_0" slope="0.000000"/>
        <vehicle id="flow_1.0" x="13.415737" y="52.522203" angle="128.156192" type="vehDist58" speed="4.966008" pos="29.893362" lane="301733776_0" slope="0.000000"/>
        <vehicle id="flow_2.0" x="13.415810" y="52.521126" angle="34.850711" type="vehDist4" speed="5.357319" pos="34.373307" lane="24540242#1_0" slope="0.000000"/>
    </timestep>
    <timestep time="12.00">
        <vehicle id="flow_0.0" x="13.417976" y="52.521719" angle="294.886665" type="vehDist49" speed="5.973511" pos="43.609688" lane="288355301_0" slope="0.000000"/>
        <vehicle id="flow_1.0" x="13.415797" y="52.522175" angle="128.668503" type="vehDist58" speed="5.428614" pos="3.941976" lane="301733777#0_0" slope="0.000000"/>
        <vehicle id="flow_2.0" x="13.415858" y="52.521170" angle="34.850711" type="vehDist4" speed="5.858499" pos="40.231806" lane="24540242#1_0" slope="0.000000"/>
    </timestep>
    <timestep time="13.00">
        <vehicle id="flow_0.0" x="13.417897" y="52.521740" angle="294.886665" type="vehDist49" speed="5.834992" pos="49.444680" lane="288355301_0" slope="0.000000"/>
        <vehicle id="flow_1.0" x="13.415864" y="52.522144" angle="128.668503" type="vehDist58" speed="5.928614" pos="9.909695" lane="301733777#0_0" slope="0.000000"/>
        <vehicle id="flow_2.0" x="13.415909" y="52.521218" angle="34.850711" type="vehDist4" speed="6.341043" pos="46.572850" lane="24540242#1_0" slope="0.000000"/>
    </timestep>
    <timestep time="14.00">
        <vehicle id="flow_0.0" x="13.417821" y="52.521761" angle="296.320707" type="vehDist49" speed="5.774495" pos="1.309175" lane="288354369_0" slope="0.000000"/>
        <vehicle id="flow_1.0" x="13.415939" y="52.522109" angle="128.668503" type="vehDist58" speed="6.563614" pos="16.665597" lane="301733777#0_0" slope="0.000000"/>
        <vehicle id="flow_2.0" x="13.415960" y="52.521265" angle="34.850711" type="vehDist4" speed="6.262926" pos="52.835775" lane="24540242#1_0" slope="0.000000"/>
    </timestep>
    <timestep time="15.00">
        <vehicle id="flow_0.0" x="13.417740" y="52.521784" angle="296.689135" type="vehDist49" speed="6.076691" pos="7.385866" lane="288354369_0" slope="0.000000"/>
        <vehicle id="flow_1.0" x="13.416016" y="52.522073" angle="128.668503" type="vehDist58" speed="6.563614" pos="1.839504" lane=":junc_01_27_0" slope="0.000000"/>
        <vehicle id="flow_2.0" x="13.416031" y="52.521297" angle="69.994648" type="vehDist4" speed="6.057343" pos="5.083118" lane=":1986668243_0_0" slope="0.000000"/>
    </timestep>
    <timestep time="16.00">
        <vehicle id="flow_0.0" x="13.417682" y="52.521821" angle="333.065718" type="vehDist49" speed="5.892906" pos="5.018773" lane=":2921377244_0_0" slope="0.000000"/>
        <vehicle id="flow_1.0" x="13.416094" y="52.522038" angle="128.668503" type="vehDist58" speed="6.563614" pos="8.402382" lane=":junc_01_27_0" slope="0.000000"/>
        <vehicle id="flow_2.0" x="13.416095" y="52.521337" angle="34.378470" type="vehDist4" speed="6.274223" pos="2.687341" lane="188044903#0_0" slope="0.000000"/>
    </timestep>
    <timestep time="17.00">
        <vehicle id="flow_0.0" x="13.417617" y="52.521853" angle="297.613329" type="vehDist49" speed="5.750906" pos="2.109679" lane="288585010_0" slope="0.000000"/>
        <vehicle id="flow_1.0" x="13.416171" y="52.522002" angle="128.668503" type="vehDist58" speed="6.563614" pos="14.965260" lane=":junc_01_27_0" slope="0.000000"/>
        <vehicle id="flow_2.0" x="13.416145" y="52.521384" angle="34.378470" type="vehDist4" speed="6.252271" pos="8.939612" lane="188044903#0_0" slope="0.000000"/>
    </timestep>
    <timestep time="18.00">
        <vehicle id="flow_0.0" x="13.417539" y="52.521876" angle="297.613329" type="vehDist49" speed="5.920939" pos="8.030618" lane="288585010_0" slope="0.000000"/>
        <vehicle id="flow_1.0" x="13.416249" y="52.521967" angle="128.668503" type="vehDist58" speed="6.563614" pos="21.526466" lane=":junc_01_27_0" slope="0.000000"/>
        <vehicle id="flow_2.0" x="13.416196" y="52.521432" angle="34.378470" type="vehDist4" speed="6.335909" pos="15.275521" lane="188044903#0_0" slope="0.000000"/>
    </timestep>
    <timestep time="19.00">
        <vehicle id="flow_0.0" x="13.417459" y="52.521901" angle="297.613329" type="vehDist49" speed="6.074220" pos="14.104837" lane="288585010_0" slope="0.000000"/>
        <vehicle id="flow_1.0" x="13.416327" y="52.521933" angle="128.668503" type="vehDist58" speed="6.563614" pos="28.086654" lane=":junc_01_27_0" slope="0.000000"/>
        <vehicle id="flow_2.0" x="13.416246" y="52.521478" angle="34.378470" type="vehDist4" speed="6.173545" pos="21.449066" lane="188044903#0_0" slope="0.000000"/>
    </timestep>
    <timestep time="20.00">
        <vehicle id="flow_0.0" x="13.417383" y="52.521924" angle="297.613329" type="vehDist49" speed="5.752395" pos="19.857233" lane="288585010_0" slope="0.000000"/>
        <vehicle id="flow_1.0" x="13.416397" y="52.521902" angle="128.668503" type="vehDist58" speed="5.063614" pos="33.897234" lane=":junc_01_27_0" slope="0.000000"/>
        <vehicle id="flow_2.0" x="13.416295" y="52.521524" angle="34.400417" type="vehDist4" speed="6.249693" pos="0.858759" lane="188044903#1_0" slope="0.000000"/>
    </timestep>
    <timestep time="21.00">
        <vehicle id="flow_0.0" x="13.417303" y="52.521948" angle="297.613329" type="vehDist49" speed="6.044986" pos="25.902219" lane="288585010_0" slope="0.000000"/>
        <vehicle id="flow_1.0" x="13.416457" y="52.521876" angle="128.668503" type="vehDist58" speed="5.063614" pos="38.958206" lane=":junc_01_27_0" slope="0.000000"/>
        <vehicle id="flow_2.0" x="13.416344" y="52.521569" angle="34.400417" type="vehDist4" speed="5.749693" pos="7.151066" lane="188044903#1_0" slope="0.000000"/>
    </timestep>
    <timestep time="22.00">
        <vehicle id="flow_0.0" x="13.417227" y="52.521971" angle="297.799683" type="vehDist49" speed="5.769720" pos="5.461939" lane="288726033#0_0" slope="0.000000"/>
        <vehicle id="flow_1.0" x="13.416510" y="52.521854" angle="128.668503" type="vehDist58" speed="3.563614" pos="43.263248" lane=":junc_01_27_0" slope="0.000000"/>
        <vehicle id="flow_2.0" x="13.416385" y="52.521607" angle="34.400417" type="vehDist4" speed="4.249693" pos="12.394601" lane="188044903#1_0" slope="0.000000"/>
    </timestep>
    <timestep time="23.00">
        <vehicle id="flow_0.0" x="13.417139" y="52.521944" angle="252.799683" type="vehDist49" speed="5.769720" pos="9.536547" lane="288726033#0_2" slope="0.000000"/>
        <vehicle id="flow_1.0" x="13.416547" y="52.521839" angle="113.668503" type="vehDist58" speed="2.563614" pos="46.265950" lane=":junc_01_27_0" slope="0.000000"/>
        <vehicle id="flow_2.0" x="13.416417" y="52.521637" angle="34.400417" type="vehDist4" speed="3.749693" pos="16.589365" lane="188044903#1_0" slope="0.000000"/>
    </timestep>
    <timestep time="24.00">
        <vehicle id="flow_0.0" x="13.417043" y="52.521909" angle="252.799683" type="vehDist49" speed="4.526226" pos="13.591797" lane="288726033#0_4" slope="0.000000"/>
        <vehicle id="flow_1.0" x="13.416574" y="52.521828" angle="113.668503" type="vehDist58" speed="2.063614" pos="48.533565" lane=":junc_01_27_0" slope="0.000000"/>
        <vehicle id="flow_2.0" x="13.416444" y="52.521661" angle="34.400417" type="vehDist4" speed="2.749693" pos="19.997551" lane="188044903#1_0" slope="0.000000"/>
    </timestep>
    <timestep time="25.00">
        <vehicle id="flow_0.0" x="13.417018" y="52.521917" angle="297.799683" type="vehDist49" speed="1.997203" pos="15.490000" lane="288726033#0_4" slope="0.000000"/>
        <vehicle id="flow_1.0" x="13.416593" y="52.521820" angle="113.668503" type="vehDist58" speed="1.063614" pos="50.066090" lane=":junc_01_27_0" slope="0.000000"/>
        <vehicle id="flow_2.0" x="13.416464" y="52.521680" angle="34.400417" type="vehDist4" speed="2.249693" pos="22.619157" lane="188044903#1_0" slope="0.000000"/>
    </timestep>
    <timestep time="26.00">
        <vehicle id="flow_0.0" x="13.416981" y="52.521921" angle="282.799683" type="vehDist49" speed="0.000000" pos="2.399915" lane=":junc_01_15_0" slope="0.000000"/>
        <vehicle id="flow_1.0" x="13.416605" y="52.521815" angle="98.668503" type="vehDist58" speed="1.063614" pos="51.018516" lane=":junc_01_27_0" slope="0.000000"/>
        <vehicle id="flow_2.0" x="13.416476" y="52.521691" angle="34.400417" type="vehDist4" speed="0.749693" pos="24.191992" lane="188044903#1_0" slope="0.000000"/>
    </timestep>
    <timestep time="27.00">
        <vehicle id="flow_0.0" x="13.416974" y="52.521922" angle="282.799683" type="vehDist49" speed="0.759000" pos="2.899604" lane=":junc_01_15_0" slope="0.000000"/>
        <vehicle id="flow_1.0" x="13.416606" y="52.521818" angle="53.668503" type="vehDist58" speed="0.300589" pos="15.486098" lane=":junc_01_18_0" slope="0.000000"/>
        <vehicle id="flow_2.0" x="13.416476" y="52.521691" angle="34.400417" type="vehDist4" speed="0.000000" pos="24.191992" lane="188044903#1_0" slope="0.000000"/>
    </timestep>
    <timestep time="28.00">
        <vehicle id="flow_0.0" x="13.416956" y="52.521924" angle="282.799683" type="vehDist49" speed="1.518000" pos="4.157821" lane=":junc_01_15_0" slope="0.000000"/>
        <vehicle id="flow_1.0" x="13.416606" y="52.521818" angle="8.668503" type="vehDist58" speed="0.000000" pos="15.486098" lane=":junc_01_18_0" slope="0.000000"/>
        <vehicle id="flow_2.0" x="13.416476" y="52.521691" angle="34.400417" type="vehDist4" speed="0.000000" pos="24.191992" lane="188044903#1_0" slope="0.000000"/>
    </timestep>
    <timestep time="29.00">
        <vehicle id="flow_0.0" x="13.417018" y="52.521917" angle="282.799683" type="vehDist49" speed="4.253549" pos="15.490000" lane="288726033#0_4" slope="0.000000"/>
        <vehicle id="flow_1.0" x="13.416606" y="52.521818" angle="8.668503" type="vehDist58" speed="0.000000" pos="15.486098" lane=":junc_01_18_0" slope="0.000000"/>
        <vehicle id="flow_2.0" x="13.416476" y="52.521691" angle="34.400417" type="vehDist4" speed="0.000000" pos="24.191992" lane="188044903#1_0" slope="0.000000"/>
    </timestep>
    <timestep time="30.00">
        <vehicle id="flow_0.0" x="13.416949" y="52.521924" angle="282.799683" type="vehDist49" speed="0.000000" pos="4.654859" lane=":junc_01_15_0" slope="0.000000"/>
        <vehicle id="flow_1.0" x="13.416606" y="52.521818" angle="8.668503" type="vehDist58" speed="0.000000" pos="15.486098" lane=":junc_01_18_0" slope="0.000000"/>
        <vehicle id="flow_2.0" x="13.416476" y="52.521691" angle="34.400417" type="vehDist4" speed="0.000000" pos="24.191992" lane="188044903#1_0" slope="0.000000"/>
    </timestep>
    <timestep time="31.00">
        <vehicle id="flow_0.0" x="13.417018" y="52.521917" angle="282.799683" type="vehDist49" speed="0.000000" pos="15.490000" lane="288726033#0_4" slope="0.000000"/>
        <vehicle id="flow_1.0" x="13.416606" y="52.521818" angle="8.668503" type="vehDist58" speed="0.000000" pos="15.486098" lane=":junc_01_18_0" slope="0.000000"/>
        <vehicle id="flow_2.0" x="13.416476" y="52.521691" angle="34.400417" type="vehDist4" speed="0.000000" pos="24.191992" lane="188044903#1_0" slope="0.000000"/>
    </timestep>
    <timestep time="32.00">
        <vehicle id="flow_0.0" x="13.417018" y="52.521917" angle="282.799683" type="vehDist49" speed="0.759000" pos="15.490000" lane="288726033#0_4" slope="0.000000"/>
        <vehicle id="flow_1.0" x="13.416606" y="52.521818" angle="8.668503" type="vehDist58" speed="0.000000" pos="15.486098" lane=":junc_01_18_0" slope="0.000000"/>
        <vehicle id="flow_2.0" x="13.416476" y="52.521691" angle="34.400417" type="vehDist4" speed="0.000000" pos="24.191992" lane="188044903#1_0" slope="0.000000"/>
    </timestep>
    <timestep time="33.00">
        <vehicle id="flow_0.0" x="13.416999" y="52.521919" angle="282.799683" type="vehDist49" speed="0.000000" pos="1.162483" lane=":junc_01_15_0" slope="0.000000"/>
        <vehicle id="flow_1.0" x="13.416606" y="52.521818" angle="8.668503" type="vehDist58" speed="0.000000" pos="15.486098" lane=":junc_01_18_0" slope="0.000000"/>
        <vehicle id="flow_2.0" x="13.416476" y="52.521691" angle="34.400417" type="vehDist4" speed="0.000000" pos="24.191992" lane="188044903#1_0" slope="0.000000"/>
    </timestep>
    <timestep time="34.00">
        <vehicle id="flow_0.0" x="13.417018" y="52.521917" angle="282.799683" type="vehDist49" speed="0.000000" pos="15.490000" lane="288726033#0_4" slope="0.000000"/>
        <vehicle id="flow_1.0" x="13.416606" y="52.521818" angle="8.668503" type="vehDist58" speed="0.000000" pos="15.486098" lane=":junc_01_18_0" slope="0.000000"/>
        <vehicle id="flow_2.0" x="13.416476" y="52.521691" angle="34.400417" type="vehDist4" speed="0.000000" pos="24.191992" lane="188044903#1_0" slope="0.000000"/>
    </timestep>
    <timestep time="35.00">
        <vehicle id="flow_0.0" x="13.417018" y="52.521917" angle="282.799683" type="vehDist49" speed="0.759000" pos="15.490000" lane="288726033#0_4" slope="0.000000"/>
        <vehicle id="flow_1.0" x="13.416606" y="52.521818" angle="8.668503" type="vehDist58" speed="0.000000" pos="15.486098" lane=":junc_01_18_0" slope="0.000000"/>
        <vehicle id="flow_2.0" x="13.416476" y="52.521691" angle="34.400417" type="vehDist4" speed="0.000000" pos="24.191992" lane="188044903#1_0" slope="0.000000"/>
    </timestep>
    <timestep time="36.00">
        <vehicle id="flow_0.0" x="13.416999" y="52.521919" angle="282.799683" type="vehDist49" speed="0.000000" pos="1.162483" lane=":junc_01_15_0" slope="0.000000"/>
        <vehicle id="flow_1.0" x="13.416606" y="52.521818" angle="8.668503" type="vehDist58" speed="0.000000" pos="15.486098" lane=":junc_01_18_0" slope="0.000000"/>
        <vehicle id="flow_2.0" x="13.416476" y="52.521691" angle="34.400417" type="vehDist4" speed="0.000000" pos="24.191992" lane="188044903#1_0" slope="0.000000"/>
    </timestep>
    <timestep time="37.00">
        <vehicle id="flow_0.0" x="13.417018" y="52.521917" angle="282.799683" type="vehDist49" speed="0.000000" pos="15.490000" lane="288726033#0_4" slope="0.000000"/>
        <vehicle id="flow_1.0" x="13.416606" y="52.521818" angle="8.668503" type="vehDist58" speed="0.000000" pos="15.486098" lane=":junc_01_18_0" slope="0.000000"/>
        <vehicle id="flow_2.0" x="13.416476" y="52.521691" angle="34.400417" type="vehDist4" speed="0.000000" pos="24.191992" lane="188044903#1_0" slope="0.000000"/>
    </timestep>
    <timestep time="38.00">
        <vehicle id="flow_0.0" x="13.417018" y="52.521917" angle="282.799683" type="vehDist49" speed="0.759000" pos="15.490000" lane="288726033#0_4" slope="0.000000"/>
        <vehicle id="flow_1.0" x="13.416606" y="52.521818" angle="8.668503" type="vehDist58" speed="0.000000" pos="15.486098" lane=":junc_01_18_0" slope="0.000000"/>
        <vehicle id="flow_2.0" x="13.416476" y="52.521691" angle="34.400417" type="vehDist4" speed="0.000000" pos="24.191992" lane="188044903#1_0" slope="0.000000"/>
    </timestep>
    <timestep time="39.00">
        <vehicle id="flow_0.0" x="13.416999" y="52.521919" angle="282.799683" type="vehDist49" speed="0.000000" pos="1.162483" lane=":junc_01_15_0" slope="0.000000"/>
        <vehicle id="flow_1.0" x="13.416606" y="52.521818" angle="8.668503" type="vehDist58" speed="0.000000" pos="15.486098" lane=":junc_01_18_0" slope="0.000000"/>
        <vehicle id="flow_2.0" x="13.416476" y="52.521691" angle="34.400417" type="vehDist4" speed="0.000000" pos="24.191992" lane="188044903#1_0" slope="0.000000"/>
    </timestep>
    <timestep time="40.00">
        <vehicle id="flow_0.0" x="13.417018" y="52.521917" angle="282.799683" type="vehDist49" speed="0.000000" pos="15.490000" lane="288726033#0_4" slope="0.000000"/>
        <vehicle id="flow_0.1" x="13.418536" y="52.521557" angle="296.793450" type="vehDist93" speed="0.000000" pos="1.700000" lane="288355301_0" slope="0.000000"/>
        <vehicle id="flow_1.0" x="13.416606" y="52.521818" angle="8.668503" type="vehDist58" speed="0.000000" pos="15.486098" lane=":junc_01_18_0" slope="0.000000"/>
        <vehicle id="flow_1.1" x="13.415404" y="52.522355" angle="128.156192" type="vehDist82" speed="0.000000" pos="1.700000" lane="301733776_0" slope="0.000000"/>
        <vehicle id="flow_2.0" x="13.416476" y="52.521691" angle="34.400417" type="vehDist4" speed="0.000000" pos="24.191992" lane="188044903#1_0" slope="0.000000"/>
        <vehicle id="flow_2.1" x="13.415544" y="52.520882" angle="34.850711" type="vehDist88" speed="0.000000" pos="1.700000" lane="24540242#1_0" slope="0.000000"/>
    </timestep>
    <timestep time="41.00">
        <vehicle id="flow_0.0" x="13.417018" y="52.521917" angle="282.799683" type="vehDist49" speed="0.759000" pos="15.490000" lane="288726033#0_4" slope="0.000000"/>
        <vehicle id="flow_0.1" x="13.418529" y="52.521559" angle="296.793450" type="vehDist93" speed="0.531239" pos="2.231239" lane="288355301_0" slope="0.000000"/>
        <vehicle id="flow_1.0" x="13.416606" y="52.521818" angle="8.668503" type="vehDist58" speed="0.000000" pos="15.486098" lane=":junc_01_18_0" slope="0.000000"/>
        <vehicle id="flow_1.1" x="13.415410" y="52.522353" angle="128.156192" type="vehDist82" speed="0.486270" pos="2.186270" lane="301733776_0" slope="0.000000"/>
        <vehicle id="flow_2.0" x="13.416476" y="52.521691" angle="34.400417" type="vehDist4" speed="0.000000" pos="24.191992" lane="188044903#1_0" slope="0.000000"/>
        <vehicle id="flow_2.1" x="13.415546" y="52.520884" angle="34.850711" type="vehDist88" speed="0.312770" pos="2.012770" lane="24540242#1_0" slope="0.000000"/>
    </timestep>
    <timestep time="42.00">
        <vehicle id="flow_0.0" x="13.416999" y="52.521919" angle="282.799683" type="vehDist49" speed="0.000000" pos="1.162483" lane=":junc_01_15_0" slope="0.000000"/>
        <vehicle id="flow_0.1" x="13.418516" y="52.521563" angle="296.793450" type="vehDist93" speed="0.959797" pos="3.191036" lane="288355301_0" slope="0.000000"/>
        <vehicle id="flow_1.0" x="13.416606" y="52.521818" angle="8.668503" type="vehDist58" speed="0.000000" pos="15.486098" lane=":junc_01_18_0" slope="0.000000"/>
        <vehicle id="flow_1.1" x="13.415421" y="52.522348" angle="128.156192" type="vehDist82" speed="0.946703" pos="3.132973" lane="301733776_0" slope="0.000000"/>
        <vehicle id="flow_2.0" x="13.416476" y="52.521691" angle="34.400417" type="vehDist4" speed="0.000000" pos="24.191992" lane="188044903#1_0" slope="0.000000"/>
        <vehicle id="flow_2.1" x="13.415553" y="52.520891" angle="34.850711" type="vehDist88" speed="0.854478" pos="2.867248" lane="24540242#1_0" slope="0.000000"/>
    </timestep>
    <timestep time="43.00">
        <vehicle id="flow_0.0" x="13.417018" y="52.521917" angle="282.799683" type="vehDist49" speed="0.000000" pos="15.490000" lane="288726033#0_4" slope="0.000000"/>
        <vehicle id="flow_0.1" x="13.418499" y="52.521568" angle="296.793450" type="vehDist93" speed="1.305832" pos="4.496868" lane="288355301_0" slope="0.000000"/>
        <vehicle id="flow_1.0" x="13.416606" y="52.521818" angle="8.668503" type="vehDist58" speed="0.000000" pos="15.486098" lane=":junc_01_18_0" slope="0.000000"/>
        <vehicle id="flow_1.1" x="13.415437" y="52.522340" angle="128.156192" type="vehDist82" speed="1.307007" pos="4.439979" lane="301733776_0" slope="0.000000"/>
        <vehicle id="flow_2.0" x="13.416476" y="52.521691" angle="34.400417" type="vehDist4" speed="0.000000" pos="24.191992" lane="188044903#1_0" slope="0.000000"/>
        <vehicle id="flow_2.1" x="13.415563" y="52.520900" angle="34.850711" type="vehDist88" speed="1.213688" pos="4.080936" lane="24540242#1_0" slope="0.000000"/>
    </timestep>
    <timestep time="44.00">
        <vehicle id="flow_0.0" x="13.417018" y="52.521917" angle="282.799683" type="vehDist49" speed="0.759000" pos="15.490000" lane="288726033#0_4" slope="0.000000"/>
        <vehicle id="flow_0.1" x="13.418475" y="52.521575" angle="296.793450" type="vehDist93" speed="1.778111" pos="6.274979" lane="288355301_0" slope="0.000000"/>
        <vehicle id="flow_1.0" x="13.416606" y="52.521818" angle="8.668503" type="vehDist58" speed="0.000000" pos="15.486098" lane=":junc_01_18_0" slope="0.000000"/>
        <vehicle id="flow_1.1" x="13.415459" y="52.522331" angle="128.156192" type="vehDist82" speed="1.845626" pos="6.285606" lane="301733776_0" slope="0.000000"/>
        <vehicle id="flow_2.0" x="13.416476" y="52.521691" angle="34.400417" type="vehDist4" speed="0.000000" pos="24.191992" lane="188044903#1_0" slope="0.000000"/>
        <vehicle id="flow_2.1" x="13.415575" y="52.520911" angle="34.850711" type="vehDist88" speed="1.538323" pos="5.619259" lane="24540242#1_0" slope="0.000000"/>
    </timestep>
    <timestep time="45.00">
        <vehicle id="flow_0.0" x="13.416999" y="52.521919" angle="282.799683" type="vehDist49" speed="0.000000" pos="1.162483" lane=":junc_01_15_0" slope="0.000000"/>
        <vehicle id="flow_0.1" x="13.418445" y="52.521584" angle="296.793450" type="vehDist93" speed="2.248923" pos="8.523902" lane="288355301_0" slope="0.000000"/>
        <vehicle id="flow_1.0" x="13.416606" y="52.521818" angle="8.668503" type="vehDist58" speed="0.000000" pos="15.486098" lane=":junc_01_18_0" slope="0.000000"/>
        <vehicle id="flow_1.1" x="13.415487" y="52.522317" angle="128.156192" type="vehDist82" speed="2.424312" pos="8.709917" lane="301733776_0" slope="0.000000"/>
        <vehicle id="flow_2.0" x="13.416476" y="52.521691" angle="34.400417" type="vehDist4" speed="0.000000" pos="24.191992" lane="188044903#1_0" slope="0.000000"/>
        <vehicle id="flow_2.1" x="13.415593" y="52.520927" angle="34.850711" type="vehDist88" speed="2.108266" pos="7.727524" lane="24540242#1_0" slope="0.000000"/>
    </timestep>
    <timestep time="46.00">
        <vehicle id="flow_0.0" x="13.417018" y="52.521917" angle="282.799683" type="vehDist49" speed="0.000000" pos="15.490000" lane="288726033#0_4" slope="0.000000"/>
        <vehicle id="flow_0.1" x="13.418410" y="52.521594" angle="296.793450" type="vehDist93" speed="2.619609" pos="11.143512" lane="288355301_0" slope="0.000000"/>
        <vehicle id="flow_1.0" x="13.416608" y="52.521819" angle="8.668503" type="vehDist58" speed="0.500000" pos="15.713556" lane=":junc_01_18_0" slope="0.000000"/>
        <vehicle id="flow_1.1" x="13.415522" y="52.522301" angle="128.156192" type="vehDist82" speed="2.971133" pos="11.681051" lane="301733776_0" slope="0.000000"/>
        <vehicle id="flow_2.0" x="13.416480" y="52.521695" angle="34.400417" type="vehDist4" speed="0.697000" pos="24.716378" lane="188044903#1_0" slope="0.000000"/>
        <vehicle id="flow_2.1" x="13.415613" y="52.520945" angle="34.850711" type="vehDist88" speed="2.461389" pos="10.188914" lane="24540242#1_0" slope="0.000000"/>
    </timestep>
    <timestep time="47.00">