<?xml version="1.0" encoding="UTF-8"?>

<!-- generated on Tue Jun  1 10:58:47 2021 by Eclipse SUMO sumo Version v1_7_0+1228-0b1a97d77e
<configuration xmlns:xsi="http://www.w3.org/2001/XMLSchema-instance" xsi:noNamespaceSchemaLocation="http://sumo.dlr.de/xsd/sumoConfiguration.xsd">

    <input>
        <net-file value="../alex_traci/alex_2_blunt.net.xml"/>
        <route-files value="../alex_traci/alex_test_sf.trips.xml"/>
    </input>

    <output>
        <fcd-output value="../alex_traci/sim_results/fcd_out_1.50_1.00_1.00_15.xml"/>
        <fcd-output.geo value="true"/>
    </output>

    <time>
        <begin value="0"/>
        <end value="2000"/>
    </time>

    <fcd_device>
        <device.fcd.explicit value="vehDist"/>
    </fcd_device>

    <traci_server>
        <remote-port value="60563"/>
    </traci_server>

</configuration>
-->

<fcd-export xmlns:xsi="http://www.w3.org/2001/XMLSchema-instance" xsi:noNamespaceSchemaLocation="http://sumo.dlr.de/xsd/fcd_file.xsd">
    <timestep time="0.00">
        <vehicle id="flow_2.0" x="13.415544" y="52.520882" angle="34.850711" type="vehDist71" speed="0.000000" pos="1.700000" lane="24540242#1_0" slope="0.000000"/>
    </timestep>
    <timestep time="1.00">
        <vehicle id="flow_2.0" x="13.415547" y="52.520885" angle="34.850711" type="vehDist71" speed="0.414774" pos="2.114774" lane="24540242#1_0" slope="0.000000"/>
    </timestep>
    <timestep time="2.00">
        <vehicle id="flow_2.0" x="13.415553" y="52.520891" angle="34.850711" type="vehDist71" speed="0.744831" pos="2.859605" lane="24540242#1_0" slope="0.000000"/>
    </timestep>
    <timestep time="3.00">
        <vehicle id="flow_2.0" x="13.415562" y="52.520899" angle="34.850711" type="vehDist71" speed="1.106690" pos="3.966295" lane="24540242#1_0" slope="0.000000"/>
    </timestep>
    <timestep time="4.00">
        <vehicle id="flow_2.0" x="13.415573" y="52.520909" angle="34.850711" type="vehDist71" speed="1.369645" pos="5.335940" lane="24540242#1_0" slope="0.000000"/>
    </timestep>
    <timestep time="5.00">
        <vehicle id="flow_2.0" x="13.415587" y="52.520921" angle="34.850711" type="vehDist71" speed="1.647541" pos="6.983481" lane="24540242#1_0" slope="0.000000"/>
    </timestep>
    <timestep time="6.00">
        <vehicle id="flow_2.0" x="13.415603" y="52.520936" angle="34.850711" type="vehDist71" speed="1.956147" pos="8.939628" lane="24540242#1_0" slope="0.000000"/>
    </timestep>
    <timestep time="7.00">
        <vehicle id="flow_2.0" x="13.415621" y="52.520953" angle="34.850711" type="vehDist71" speed="2.204105" pos="11.143732" lane="24540242#1_0" slope="0.000000"/>
    </timestep>
    <timestep time="8.00">
        <vehicle id="flow_2.0" x="13.415641" y="52.520971" angle="34.850711" type="vehDist71" speed="2.502081" pos="13.645813" lane="24540242#1_0" slope="0.000000"/>
    </timestep>
    <timestep time="9.00">
        <vehicle id="flow_2.0" x="13.415663" y="52.520992" angle="34.850711" type="vehDist71" speed="2.752592" pos="16.398405" lane="24540242#1_0" slope="0.000000"/>
    </timestep>
    <timestep time="10.00">
        <vehicle id="flow_2.0" x="13.415689" y="52.521015" angle="34.850711" type="vehDist71" speed="3.094219" pos="19.492624" lane="24540242#1_0" slope="0.000000"/>
    </timestep>
    <timestep time="11.00">
        <vehicle id="flow_2.0" x="13.415717" y="52.521041" angle="34.850711" type="vehDist71" speed="3.489559" pos="22.982183" lane="24540242#1_0" slope="0.000000"/>
    </timestep>
    <timestep time="12.00">
        <vehicle id="flow_2.0" x="13.415748" y="52.521070" angle="34.850711" type="vehDist71" speed="3.816010" pos="26.798192" lane="24540242#1_0" slope="0.000000"/>
    </timestep>
    <timestep time="13.00">
        <vehicle id="flow_2.0" x="13.415783" y="52.521102" angle="34.850711" type="vehDist71" speed="4.243983" pos="31.042176" lane="24540242#1_0" slope="0.000000"/>
    </timestep>
    <timestep time="14.00">
        <vehicle id="flow_2.0" x="13.415820" y="52.521136" angle="34.850711" type="vehDist71" speed="4.621074" pos="35.663250" lane="24540242#1_0" slope="0.000000"/>
    </timestep>
    <timestep time="15.00">
        <vehicle id="flow_2.0" x="13.415860" y="52.521173" angle="34.850711" type="vehDist71" speed="4.864256" pos="40.527506" lane="24540242#1_0" slope="0.000000"/>
    </timestep>
    <timestep time="16.00">
        <vehicle id="flow_2.0" x="13.415902" y="52.521211" angle="34.850711" type="vehDist71" speed="5.098575" pos="45.626081" lane="24540242#1_0" slope="0.000000"/>
    </timestep>
    <timestep time="17.00">
        <vehicle id="flow_2.0" x="13.415947" y="52.521252" angle="34.850711" type="vehDist71" speed="5.504409" pos="51.130490" lane="24540242#1_0" slope="0.000000"/>
    </timestep>
    <timestep time="18.00">
        <vehicle id="flow_2.0" x="13.416003" y="52.521290" angle="55.356942" type="vehDist71" speed="5.773520" pos="3.094011" lane=":1986668243_0_0" slope="0.000000"/>
    </timestep>
    <timestep time="19.00">
        <vehicle id="flow_2.0" x="13.416078" y="52.521321" angle="41.706129" type="vehDist71" speed="6.157970" pos="0.581980" lane="188044903#0_0" slope="0.000000"/>
    </timestep>
    <timestep time="20.00">
        <vehicle id="flow_2.0" x="13.416129" y="52.521369" angle="34.378470" type="vehDist71" speed="6.332150" pos="6.914131" lane="188044903#0_0" slope="0.000000"/>
    </timestep>
    <timestep time="21.00">
        <vehicle id="flow_2.0" x="13.416180" y="52.521417" angle="34.378470" type="vehDist71" speed="6.386630" pos="13.300760" lane="188044903#0_0" slope="0.000000"/>
    </timestep>
    <timestep time="22.00">
        <vehicle id="flow_2.0" x="13.416231" y="52.521464" angle="34.378470" type="vehDist71" speed="6.280872" pos="19.581632" lane="188044903#0_0" slope="0.000000"/>
    </timestep>
    <timestep time="23.00">
        <vehicle id="flow_2.0" x="13.416282" y="52.521512" angle="34.378470" type="vehDist71" speed="6.330471" pos="25.912103" lane="188044903#0_0" slope="0.000000"/>
    </timestep>
    <timestep time="24.00">
        <vehicle id="flow_2.0" x="13.416331" y="52.521557" angle="34.813499" type="vehDist71" speed="6.393485" pos="5.465588" lane="188044903#1_0" slope="0.000000"/>
    </timestep>
    <timestep time="25.00">
        <vehicle id="flow_2.0" x="13.416379" y="52.521602" angle="34.813499" type="vehDist71" speed="5.393485" pos="11.646667" lane="188044903#1_0" slope="0.000000"/>
    </timestep>
    <timestep time="26.00">
        <vehicle id="flow_2.0" x="13.416419" y="52.521638" angle="34.813499" type="vehDist71" speed="4.393485" pos="16.778948" lane="188044903#1_0" slope="0.000000"/>
    </timestep>
    <timestep time="27.00">
        <vehicle id="flow_2.0" x="13.416449" y="52.521665" angle="34.813499" type="vehDist71" speed="2.893485" pos="20.600230" lane="188044903#1_0" slope="0.000000"/>
    </timestep>
    <timestep time="28.00">
        <vehicle id="flow_2.0" x="13.416468" y="52.521683" angle="34.813499" type="vehDist71" speed="1.893485" pos="23.110513" lane="188044903#1_0" slope="0.000000"/>
    </timestep>
    <timestep time="29.00">
        <vehicle id="flow_2.0" x="13.416475" y="52.521690" angle="34.813499" type="vehDist71" speed="0.937085" pos="24.047599" lane="188044903#1_0" slope="0.000000"/>
    </timestep>
    <timestep time="30.00">
        <vehicle id="flow_2.0" x="13.416475" y="52.521690" angle="34.813499" type="vehDist71" speed="0.000000" pos="24.047599" lane="188044903#1_0" slope="0.000000"/>
    </timestep>
    <timestep time="31.00">
        <vehicle id="flow_2.0" x="13.416475" y="52.521690" angle="34.813499" type="vehDist71" speed="0.000000" pos="24.047599" lane="188044903#1_0" slope="0.000000"/>
    </timestep>
    <timestep time="32.00">
        <vehicle id="flow_2.0" x="13.416475" y="52.521690" angle="34.813499" type="vehDist71" speed="0.000000" pos="24.047599" lane="188044903#1_0" slope="0.000000"/>
    </timestep>
    <timestep time="33.00">
        <vehicle id="flow_2.0" x="13.416475" y="52.521690" angle="34.813499" type="vehDist71" speed="0.000000" pos="24.047599" lane="188044903#1_0" slope="0.000000"/>
    </timestep>
    <timestep time="34.00">
        <vehicle id="flow_2.0" x="13.416475" y="52.521690" angle="34.813499" type="vehDist71" speed="0.000000" pos="24.047599" lane="188044903#1_0" slope="0.000000"/>
    </timestep>
    <timestep time="35.00">
        <vehicle id="flow_2.0" x="13.416475" y="52.521690" angle="34.813499" type="vehDist71" speed="0.000000" pos="24.047599" lane="188044903#1_0" slope="0.000000"/>
    </timestep>
    <timestep time="36.00">
        <vehicle id="flow_2.0" x="13.416475" y="52.521690" angle="34.813499" type="vehDist71" speed="0.000000" pos="24.047599" lane="188044903#1_0" slope="0.000000"/>
    </timestep>
    <timestep time="37.00">
        <vehicle id="flow_2.0" x="13.416475" y="52.521690" angle="34.813499" type="vehDist71" speed="0.000000" pos="24.047599" lane="188044903#1_0" slope="0.000000"/>
    </timestep>
    <timestep time="38.00">
        <vehicle id="flow_2.0" x="13.416475" y="52.521690" angle="34.813499" type="vehDist71" speed="0.000000" pos="24.047599" lane="188044903#1_0" slope="0.000000"/>
    </timestep>
    <timestep time="39.00">
        <vehicle id="flow_2.0" x="13.416475" y="52.521690" angle="34.813499" type="vehDist71" speed="0.000000" pos="24.047599" lane="188044903#1_0" slope="0.000000"/>
    </timestep>
    <timestep time="40.00">
        <vehicle id="flow_2.0" x="13.416475" y="52.521690" angle="34.813499" type="vehDist71" speed="0.000000" pos="24.047599" lane="188044903#1_0" slope="0.000000"/>
        <vehicle id="flow_2.1" x="13.415544" y="52.520882" angle="34.850711" type="vehDist74" speed="0.000000" pos="1.700000" lane="24540242#1_0" slope="0.000000"/>
    </timestep>
    <timestep time="41.00">
        <vehicle id="flow_2.0" x="13.416475" y="52.521690" angle="34.813499" type="vehDist71" speed="0.000000" pos="24.047599" lane="188044903#1_0" slope="0.000000"/>
        <vehicle id="flow_2.1" x="13.415547" y="52.520885" angle="34.850711" type="vehDist74" speed="0.473024" pos="2.173024" lane="24540242#1_0" slope="0.000000"/>
    </timestep>
    <timestep time="42.00">
        <vehicle id="flow_2.0" x="13.416475" y="52.521690" angle="34.813499" type="vehDist71" speed="0.000000" pos="24.047599" lane="188044903#1_0" slope="0.000000"/>
        <vehicle id="flow_2.1" x="13.415558" y="52.520895" angle="34.850711" type="vehDist74" speed="1.303486" pos="3.476510" lane="24540242#1_0" slope="0.000000"/>
    </timestep>
    <timestep time="43.00">
        <vehicle id="flow_2.0" x="13.416475" y="52.521690" angle="34.813499" type="vehDist71" speed="0.000000" pos="24.047599" lane="188044903#1_0" slope="0.000000"/>
        <vehicle id="flow_2.1" x="13.415573" y="52.520909" angle="34.850711" type="vehDist74" speed="1.818021" pos="5.294531" lane="24540242#1_0" slope="0.000000"/>
    </timestep>
    <timestep time="44.00">
        <vehicle id="flow_2.0" x="13.416475" y="52.521690" angle="34.813499" type="vehDist71" speed="0.000000" pos="24.047599" lane="188044903#1_0" slope="0.000000"/>
        <vehicle id="flow_2.1" x="13.415594" y="52.520928" angle="34.850711" type="vehDist74" speed="2.596614" pos="7.891144" lane="24540242#1_0" slope="0.000000"/>
    </timestep>
    <timestep time="45.00">
        <vehicle id="flow_2.0" x="13.416475" y="52.521690" angle="34.813499" type="vehDist71" speed="0.000000" pos="24.047599" lane="188044903#1_0" slope="0.000000"/>
        <vehicle id="flow_2.1" x="13.415622" y="52.520954" angle="34.850711" type="vehDist74" speed="3.394809" pos="11.285953" lane="24540242#1_0" slope="0.000000"/>
    </timestep>
    <timestep time="46.00">
        <vehicle id="flow_2.0" x="13.416477" y="52.521692" angle="34.813499" type="vehDist71" speed="0.454000" pos="24.309798" lane="188044903#1_0" slope="0.000000"/>
        <vehicle id="flow_2.1" x="13.415657" y="52.520986" angle="34.850711" type="vehDist74" speed="4.272815" pos="15.558768" lane="24540242#1_0" slope="0.000000"/>
    </timestep>
    <timestep time="47.00">
        <vehicle id="flow_2.0" x="13.416483" y="52.521697" angle="34.813499" type="vehDist71" speed="0.908000" pos="25.048153" lane="188044903#1_0" slope="0.000000"/>
        <vehicle id="flow_2.1" x="13.415698" y="52.521023" angle="34.850711" type="vehDist74" speed="5.058254" pos="20.617022" lane="24540242#1_0" slope="0.000000"/>
    </timestep>
    <timestep time="48.00">
        <vehicle id="flow_2.0" x="13.416492" y="52.521706" angle="34.813499" type="vehDist71" speed="1.362000" pos="0.850734" lane=":junc_01_18_0" slope="0.000000"/>
        <vehicle id="flow_2.1" x="13.415740" y="52.521063" angle="34.850711" type="vehDist74" speed="5.229340" pos="25.846361" lane="24540242#1_0" slope="0.000000"/>
    </timestep>
    <timestep time="49.00">
        <vehicle id="flow_2.0" x="13.416505" y="52.521718" angle="34.813499" type="vehDist71" speed="1.816000" pos="2.461990" lane=":junc_01_18_0" slope="0.000000"/>
        <vehicle id="flow_2.1" x="13.415781" y="52.521100" angle="34.850711" type="vehDist74" speed="5.020470" pos="30.866831" lane="24540242#1_0" slope="0.000000"/>
    </timestep>
    <timestep time="50.00">
        <vehicle id="flow_2.0" x="13.416521" y="52.521734" angle="34.813499" type="vehDist71" speed="2.270000" pos="4.527035" lane=":junc_01_18_0" slope="0.000000"/>
        <vehicle id="flow_2.1" x="13.415825" y="52.521140" angle="34.850711" type="vehDist74" speed="5.333838" pos="36.200670" lane="24540242#1_0" slope="0.000000"/>
    </timestep>
    <timestep time="51.00">
        <vehicle id="flow_2.0" x="13.416540" y="52.521753" angle="34.813499" type="vehDist71" speed="2.724000" pos="7.045871" lane=":junc_01_18_0" slope="0.000000"/>
        <vehicle id="flow_2.1" x="13.415868" y="52.521180" angle="34.850711" type="vehDist74" speed="5.283008" pos="41.483678" lane="24540242#1_0" slope="0.000000"/>
    </timestep>
    <timestep time="52.00">
        <vehicle id="flow_2.0" x="13.416564" y="52.521776" angle="34.813499" type="vehDist71" speed="3.178000" pos="10.018497" lane=":junc_01_18_0" slope="0.000000"/>
        <vehicle id="flow_2.1" x="13.415909" y="52.521218" angle="34.850711" type="vehDist74" speed="5.098871" pos="46.582549" lane="24540242#1_0" slope="0.000000"/>
    </timestep>
    <timestep time="53.00">
        <vehicle id="flow_2.0" x="13.416590" y="52.521802" angle="34.813499" type="vehDist71" speed="3.632000" pos="13.444913" lane=":junc_01_18_0" slope="0.000000"/>
        <vehicle id="flow_2.1" x="13.415953" y="52.521258" angle="34.850711" type="vehDist74" speed="5.331631" pos="51.914179" lane="24540242#1_0" slope="0.000000"/>
    </timestep>
    <timestep time="54.00">
        <vehicle id="flow_2.0" x="13.416621" y="52.521832" angle="34.813499" type="vehDist71" speed="4.086000" pos="17.325119" lane=":junc_01_18_0" slope="0.000000"/>
        <vehicle id="flow_2.1" x="13.416004" y="52.521290" angle="56.435162" type="vehDist74" speed="5.061010" pos="3.165190" lane=":1986668243_0_0" slope="0.000000"/>
    </timestep>
    <timestep time="55.00">
        <vehicle id="flow_2.0" x="13.416653" y="52.521865" angle="34.813499" type="vehDist71" speed="4.540000" pos="21.649533" lane=":junc_01_18_0" slope="0.000000"/>
        <vehicle id="flow_2.1" x="13.416069" y="52.521314" angle="45.802409" type="vehDist74" speed="5.143861" pos="8.309051" lane=":1986668243_0_0" slope="0.000000"/>
    </timestep>
    <timestep time="56.00">
        <vehicle id="flow_2.0" x="13.416683" y="52.521899" angle="34.813499" type="vehDist71" speed="4.040000" pos="25.924096" lane=":junc_01_18_0" slope="0.000000"/>
        <vehicle id="flow_2.1" x="13.416113" y="52.521354" angle="34.378470" type="vehDist74" speed="5.339315" pos="4.978366" lane="188044903#0_0" slope="0.000000"/>
    </timestep>
    <timestep time="57.00">
        <vehicle id="flow_2.0" x="13.416710" y="52.521929" angle="34.813499" type="vehDist71" speed="3.540000" pos="29.700458" lane=":junc_01_18_0" slope="0.000000"/>
        <vehicle id="flow_2.1" x="13.416156" y="52.521394" angle="34.378470" type="vehDist74" speed="5.311631" pos="10.289997" lane="188044903#0_0" slope="0.000000"/>
    </timestep>
    <timestep time="58.00">
        <vehicle id="flow_2.0" x="13.416735" y="52.521956" angle="34.813499" type="vehDist71" speed="3.540000" pos="33.227720" lane=":junc_01_18_0" slope="0.000000"/>
        <vehicle id="flow_2.1" x="13.416196" y="52.521432" angle="34.378470" type="vehDist74" speed="5.046291" pos="15.336288" lane="188044903#0_0" slope="0.000000"/>
    </timestep>
    <timestep time="59.00">
        <vehicle id="flow_2.0" x="13.416758" y="52.521982" angle="19.813499" type="vehDist71" speed="3.040000" pos="36.487096" lane=":junc_01_18_0" slope="0.000000"/>
        <vehicle id="flow_2.1" x="13.416239" y="52.521472" angle="34.378470" type="vehDist74" speed="5.299104" pos="20.635392" lane="188044903#0_0" slope="0.000000"/>
    </timestep>
    <timestep time="60.00">
        <vehicle id="flow_2.0" x="13.416778" y="52.522006" angle="19.813499" type="vehDist71" speed="3.040000" pos="39.497218" lane=":junc_01_18_0" slope="0.000000"/>
        <vehicle id="flow_2.1" x="13.416280" y="52.521510" angle="34.378470" type="vehDist74" speed="5.090342" pos="25.725734" lane="188044903#0_0" slope="0.000000"/>
    </timestep>
    <timestep time="61.00">
        <vehicle id="flow_2.0" x="13.416794" y="52.522027" angle="19.813499" type="vehDist71" speed="2.040000" pos="42.012254" lane=":junc_01_18_0" slope="0.000000"/>
        <vehicle id="flow_2.1" x="13.416321" y="52.521548" angle="34.813499" type="vehDist74" speed="5.288397" pos="4.174131" lane="188044903#1_0" slope="0.000000"/>
    </timestep>
    <timestep time="62.00">
        <vehicle id="flow_2.0" x="13.416807" y="52.522043" angle="19.813499" type="vehDist71" speed="2.040000" pos="44.032204" lane=":junc_01_18_0" slope="0.000000"/>
        <vehicle id="flow_2.1" x="13.416364" y="52.521588" angle="34.813499" type="vehDist74" speed="5.288397" pos="9.720595" lane="188044903#1_0" slope="0.000000"/>
    </timestep>
    <timestep time="63.00">
        <vehicle id="flow_2.0" x="13.416819" y="52.522057" angle="19.813499" type="vehDist71" speed="1.540000" pos="45.804611" lane=":junc_01_18_0" slope="0.000000"/>
        <vehicle id="flow_2.1" x="13.416407" y="52.521627" angle="34.813499" type="vehDist74" speed="5.288397" pos="15.267060" lane="188044903#1_0" slope="0.000000"/>
    </timestep>
    <timestep time="64.00">
        <vehicle id="flow_2.0" x="13.416829" y="52.522069" angle="19.813499" type="vehDist71" speed="1.540000" pos="47.329475" lane=":junc_01_18_0" slope="0.000000"/>
        <vehicle id="flow_2.1" x="13.416450" y="52.521667" angle="34.813499" type="vehDist74" speed="5.288397" pos="20.813524" lane="188044903#1_0" slope="0.000000"/>
    </timestep>
    <timestep time="65.00">
        <vehicle id="flow_2.0" x="13.416838" y="52.522080" angle="19.813499" type="vehDist71" speed="1.040000" pos="48.605458" lane=":junc_01_18_0" slope="0.000000"/>
        <vehicle id="flow_2.1" x="13.416485" y="52.521699" angle="34.813499" type="vehDist74" speed="5.288397" pos="25.270000" lane="188044903#1_0" slope="0.000000"/>
    </timestep>
    <timestep time="66.00">
        <vehicle id="flow_2.0" x="13.416842" y="52.522086" angle="4.813499" type="vehDist71" speed="0.540000" pos="49.330205" lane=":junc_01_18_0" slope="0.000000"/>
        <vehicle id="flow_2.1" x="13.416526" y="52.521739" angle="34.813499" type="vehDist74" speed="5.288397" pos="5.190650" lane=":junc_01_18_0" slope="0.000000"/>
    </timestep>
    <timestep time="67.00">
        <vehicle id="flow_2.0" x="13.416839" y="52.522087" angle="319.813499" type="vehDist71" speed="0.040000" pos="19.219150" lane=":junc_01_9_0" slope="0.000000"/>
        <vehicle id="flow_2.1" x="13.416567" y="52.521779" angle="34.813499" type="vehDist74" speed="5.288397" pos="10.476604" lane=":junc_01_18_0" slope="0.000000"/>
    </timestep>
    <timestep time="68.00">
        <vehicle id="flow_2.0" x="13.416839" y="52.522087" angle="274.813499" type="vehDist71" speed="0.000000" pos="19.219150" lane=":junc_01_9_0" slope="0.000000"/>
        <vehicle id="flow_2.1" x="13.416608" y="52.521820" angle="34.813499" type="vehDist74" speed="5.288397" pos="15.762557" lane=":junc_01_18_0" slope="0.000000"/>
    </timestep>
    <timestep time="69.00">
        <vehicle id="flow_2.0" x="13.416839" y="52.522087" angle="274.813499" type="vehDist71" speed="0.000000" pos="19.219150" lane=":junc_01_9_0" slope="0.000000"/>
        <vehicle id="flow_2.1" x="13.416649" y="52.521860" angle="34.813499" type="vehDist74" speed="5.288397" pos="21.038362" lane=":junc_01_18_0" slope="0.000000"/>
    </timestep>
    <timestep time="70.00">
        <vehicle id="flow_2.0" x="13.416839" y="52.522087" angle="274.813499" type="vehDist71" speed="0.000000" pos="19.219150" lane=":junc_01_9_0" slope="0.000000"/>
        <vehicle id="flow_2.1" x="13.416684" y="52.521900" angle="34.813499" type="vehDist74" speed="4.788397" pos="26.058629" lane=":junc_01_18_0" slope="0.000000"/>
    </timestep>
    <timestep time="71.00">
        <vehicle id="flow_2.0" x="13.416839" y="52.522087" angle="274.813499" type="vehDist71" speed="0.000000" pos="19.219150" lane=":junc_01_9_0" slope="0.000000"/>
        <vehicle id="flow_2.1" x="13.416716" y="52.521936" angle="34.813499" type="vehDist74" speed="4.288397" pos="30.580696" lane=":junc_01_18_0" slope="0.000000"/>
    </timestep>
    <timestep time="72.00">
        <vehicle id="flow_2.0" x="13.416839" y="52.522087" angle="274.813499" type="vehDist71" speed="0.000000" pos="19.219150" lane=":junc_01_9_0" slope="0.000000"/>
        <vehicle id="flow_2.1" x="13.416745" y="52.521967" angle="34.813499" type="vehDist74" speed="3.788397" pos="34.604561" lane=":junc_01_18_0" slope="0.000000"/>
    </timestep>
    <timestep time="73.00">
        <vehicle id="flow_2.0" x="13.416839" y="52.522087" angle="274.813499" type="vehDist71" speed="0.000000" pos="19.219150" lane=":junc_01_9_0" slope="0.000000"/>
        <vehicle id="flow_2.1" x="13.416768" y="52.521995" angle="19.813499" type="vehDist74" speed="3.288397" pos="38.108916" lane=":junc_01_18_0" slope="0.000000"/>
    </timestep>
    <timestep time="74.00">
        <vehicle id="flow_2.0" x="13.416839" y="52.522087" angle="274.813499" type="vehDist71" speed="0.000000" pos="19.219150" lane=":junc_01_9_0" slope="0.000000"/>
        <vehicle id="flow_2.1" x="13.416790" y="52.522021" angle="19.813499" type="vehDist74" speed="3.288397" pos="41.364993" lane=":junc_01_18_0" slope="0.000000"/>
    </timestep>
    <timestep time="75.00">
        <vehicle id="flow_2.0" x="13.416839" y="52.522087" angle="274.813499" type="vehDist71" speed="0.000000" pos="19.219150" lane=":junc_01_9_0" slope="0.000000"/>
        <vehicle id="flow_2.1" x="13.416808" y="52.522044" angle="19.813499" type="vehDist74" speed="2.288397" pos="44.125984" lane=":junc_01_18_0" slope="0.000000"/>
    </timestep>
    <timestep time="76.00">
        <vehicle id="flow_2.0" x="13.416839" y="52.522087" angle="274.813499" type="vehDist71" speed="0.000000" pos="19.219150" lane=":junc_01_9_0" slope="0.000000"/>
        <vehicle id="flow_2.1" x="13.416821" y="52.522060" angle="19.813499" type="vehDist74" speed="1.788397" pos="46.144347" lane=":junc_01_18_0" slope="0.000000"/>
    </timestep>
    <timestep time="77.00">
        <vehicle id="flow_2.0" x="13.416839" y="52.522087" angle="274.813499" type="vehDist71" speed="0.000000" pos="19.219150" lane=":junc_01_9_0" slope="0.000000"/>
        <vehicle id="flow_2.1" x="13.416831" y="52.522072" angle="19.813499" type="vehDist74" speed="1.288397" pos="47.667624" lane=":junc_01_18_0" slope="0.000000"/>
    </timestep>
    <timestep time="78.00">
        <vehicle id="flow_2.0" x="13.416839" y="52.522087" angle="274.813499" type="vehDist71" speed="0.000000" pos="19.219150" lane=":junc_01_9_0" slope="0.000000"/>
        <vehicle id="flow_2.1" x="13.416831" y="52.522072" angle="19.813499" type="vehDist74" speed="0.000000" pos="47.667624" lane=":junc_01_18_0" slope="0.000000"/>
    </timestep>
    <timestep time="79.00">
        <vehicle id="flow_2.0" x="13.416839" y="52.522087" angle="274.813499" type="vehDist71" speed="0.000000" pos="19.219150" lane=":junc_01_9_0" slope="0.000000"/>
        <vehicle id="flow_2.1" x="13.416831" y="52.522072" angle="19.813499" type="vehDist74" speed="0.000000" pos="47.667624" lane=":junc_01_18_0" slope="0.000000"/>
    </timestep>
    <timestep time="80.00">
        <vehicle id="flow_2.0" x="13.416839" y="52.522087" angle="274.813499" type="vehDist71" speed="0.000000" pos="19.219150" lane=":junc_01_9_0" slope="0.000000"/>
        <vehicle id="flow_2.1" x="13.416831" y="52.522072" angle="19.813499" type="vehDist74" speed="0.000000" pos="47.667624" lane=":junc_01_18_0" slope="0.000000"/>
        <vehicle id="flow_2.2" x="13.415544" y="52.520882" angle="34.850711" type="vehDist45" speed="0.000000" pos="1.700000" lane="24540242#1_0" slope="0.000000"/>
    </timestep>
    <timestep time="81.00">
        <vehicle id="flow_2.0" x="13.416839" y="52.522087" angle="274.813499" type="vehDist71" speed="0.000000" pos="19.219150" lane=":junc_01_9_0" slope="0.000000"/>
        <vehicle id="flow_2.1" x="13.416831" y="52.522072" angle="19.813499" type="vehDist74" speed="0.000000" pos="47.667624" lane=":junc_01_18_0" slope="0.000000"/>
        <vehicle id="flow_2.2" x="13.415548" y="52.520886" angle="34.850711" type="vehDist45" speed="0.538189" pos="2.238189" lane="24540242#1_0" slope="0.000000"/>
    </timestep>
    <timestep time="82.00">
        <vehicle id="flow_2.0" x="13.416839" y="52.522087" angle="274.813499" type="vehDist71" speed="0.000000" pos="19.219150" lane=":junc_01_9_0" slope="0.000000"/>
        <vehicle id="flow_2.1" x="13.416833" y="52.522074" angle="19.813499" type="vehDist74" speed="0.002613" pos="47.915167" lane=":junc_01_18_0" slope="0.000000"/>
        <vehicle id="flow_2.2" x="13.415556" y="52.520893" angle="34.850711" type="vehDist45" speed="1.001555" pos="3.239743" lane="24540242#1_0" slope="0.000000"/>
    </timestep>
    <timestep time="83.00">
        <vehicle id="flow_2.0" x="13.416839" y="52.522087" angle="274.813499" type="vehDist71" speed="0.000000" pos="19.219150" lane=":junc_01_9_0" slope="0.000000"/>
        <vehicle id="flow_2.1" x="13.416834" y="52.522075" angle="334.813499" type="vehDist74" speed="0.004089" pos="48.067124" lane=":junc_01_18_0" slope="0.000000"/>
        <vehicle id="flow_2.2" x="13.415569" y="52.520905" angle="34.850711" type="vehDist45" speed="1.550462" pos="4.790205" lane="24540242#1_0" slope="0.000000"/>
    </timestep>
    <timestep time="84.00">
        <vehicle id="flow_2.0" x="13.416839" y="52.522087" angle="274.813499" type="vehDist71" speed="0.000000" pos="19.219150" lane=":junc_01_9_0" slope="0.000000"/>
        <vehicle id="flow_2.1" x="13.416834" y="52.522075" angle="289.813499" type="vehDist74" speed="0.004879" pos="48.031689" lane=":junc_01_18_0" slope="0.000000"/>
        <vehicle id="flow_2.2" x="13.415585" y="52.520920" angle="34.850711" type="vehDist45" speed="2.040699" pos="6.830905" lane="24540242#1_0" slope="0.000000"/>
    </timestep>
    <timestep time="85.00">
        <vehicle id="flow_2.0" x="13.416839" y="52.522087" angle="274.813499" type="vehDist71" speed="0.000000" pos="19.219150" lane=":junc_01_9_0" slope="0.000000"/>
        <vehicle id="flow_2.1" x="13.416833" y="52.522073" angle="244.813499" type="vehDist74" speed="0.005732" pos="47.828098" lane=":junc_01_18_0" slope="0.000000"/>
        <vehicle id="flow_2.2" x="13.415605" y="52.520938" angle="34.850711" type="vehDist45" speed="2.351281" pos="9.182186" lane="24540242#1_0" slope="0.000000"/>
    </timestep>
    <timestep time="86.00">
        <vehicle id="flow_2.0" x="13.416839" y="52.522087" angle="274.813499" type="vehDist71" speed="0.000000" pos="19.219150" lane=":junc_01_9_0" slope="0.000000"/>
        <vehicle id="flow_2.1" x="13.416831" y="52.522072" angle="259.813499" type="vehDist74" speed="0.007262" pos="47.670603" lane=":junc_01_18_0" slope="0.000000"/>
        <vehicle id="flow_2.2" x="13.415627" y="52.520958" angle="34.850711" type="vehDist45" speed="2.740739" pos="11.922925" lane="24540242#1_0" slope="0.000000"/>
    </timestep>
    <timestep time="87.00">
        <vehicle id="flow_2.0" x="13.416839" y="52.522087" angle="274.813499" type="vehDist71" speed="0.000000" pos="19.219150" lane=":junc_01_9_0" slope="0.000000"/>
        <vehicle id="flow_2.1" x="13.416832" y="52.522072" angle="304.813499" type="vehDist74" speed="0.009240" pos="47.701877" lane=":junc_01_18_0" slope="0.000000"/>
        <vehicle id="flow_2.2" x="13.415653" y="52.520982" angle="34.850711" type="vehDist45" speed="3.162494" pos="15.085419" lane="24540242#1_0" slope="0.000000"/>
    </timestep>
    <timestep time="88.00">
        <vehicle id="flow_2.0" x="13.416839" y="52.522087" angle="274.813499" type="vehDist71" speed="0.000000" pos="19.219150" lane=":junc_01_9_0" slope="0.000000"/>
        <vehicle id="flow_2.1" x="13.416833" y="52.522074" angle="349.813499" type="vehDist74" speed="0.010933" pos="47.906102" lane=":junc_01_18_0" slope="0.000000"/>
        <vehicle id="flow_2.2" x="13.415683" y="52.521010" angle="34.850711" type="vehDist45" speed="3.674901" pos="18.760320" lane="24540242#1_0" slope="0.000000"/>
    </timestep>
    <timestep time="89.00">
        <vehicle id="flow_2.0" x="13.416839" y="52.522087" angle="274.813499" type="vehDist71" speed="0.000000" pos="19.219150" lane=":junc_01_9_0" slope="0.000000"/>
        <vehicle id="flow_2.1" x="13.416835" y="52.522076" angle="19.813499" type="vehDist74" speed="0.011729" pos="48.164470" lane=":junc_01_18_0" slope="0.000000"/>
        <vehicle id="flow_2.2" x="13.415717" y="52.521041" angle="34.850711" type="vehDist45" speed="4.238769" pos="22.999089" lane="24540242#1_0" slope="0.000000"/>
    </timestep>
    <timestep time="90.00">