<?xml version="1.0" encoding="UTF-8"?>

<!-- generated on Fr 09 Jul 2021 10:57:56 CEST by Eclipse SUMO GUI Version v1_7_0+1228-0b1a97d77e
<configuration xmlns:xsi="http://www.w3.org/2001/XMLSchema-instance" xsi:noNamespaceSchemaLocation="http://sumo.dlr.de/xsd/sumoConfiguration.xsd">

    <input>
        <net-file value="./example_scenario/alex.net.xml"/>
        <route-files value="./example_scenario/alex.trips.xml"/>
    </input>

    <output>
        <fcd-output value="./example_scenario/grid_search_results/fcd_out_2.00_1.00_1.00_15.xml"/>
        <fcd-output.geo value="true"/>
    </output>

    <time>
        <begin value="0"/>
        <end value="8000"/>
    </time>

    <fcd_device>
        <device.fcd.explicit value="vehDist"/>
    </fcd_device>

    <traci_server>
        <remote-port value="54017"/>
    </traci_server>

</configuration>
-->

<fcd-export xmlns:xsi="http://www.w3.org/2001/XMLSchema-instance" xsi:noNamespaceSchemaLocation="http://sumo.dlr.de/xsd/fcd_file.xsd">
    <timestep time="0.00">
        <vehicle id="flow_2.0" x="13.414635" y="52.520033" angle="34.557237" type="vehDist71" speed="0.000000" pos="1.700000" lane="24540242#1_0" slope="0.000000"/>
    </timestep>
    <timestep time="1.00">
        <vehicle id="flow_2.0" x="13.414643" y="52.520041" angle="34.557237" type="vehDist71" speed="0.969329" pos="2.669329" lane="24540242#1_0" slope="0.000000"/>
    </timestep>
    <timestep time="2.00">
        <vehicle id="flow_2.0" x="13.414657" y="52.520054" angle="34.557237" type="vehDist71" speed="1.740673" pos="4.410002" lane="24540242#1_0" slope="0.000000"/>
    </timestep>
    <timestep time="3.00">
        <vehicle id="flow_2.0" x="13.414678" y="52.520073" angle="34.557237" type="vehDist71" speed="2.586339" pos="6.996341" lane="24540242#1_0" slope="0.000000"/>
    </timestep>
    <timestep time="4.00">
        <vehicle id="flow_2.0" x="13.414704" y="52.520097" angle="34.557237" type="vehDist71" speed="3.200867" pos="10.197208" lane="24540242#1_0" slope="0.000000"/>
    </timestep>
    <timestep time="5.00">
        <vehicle id="flow_2.0" x="13.414735" y="52.520126" angle="34.557237" type="vehDist71" speed="3.850310" pos="14.047518" lane="24540242#1_0" slope="0.000000"/>
    </timestep>
    <timestep time="6.00">
        <vehicle id="flow_2.0" x="13.414772" y="52.520160" angle="34.557237" type="vehDist71" speed="4.571524" pos="18.619042" lane="24540242#1_0" slope="0.000000"/>
    </timestep>
    <timestep time="7.00">
        <vehicle id="flow_2.0" x="13.414813" y="52.520199" angle="34.557237" type="vehDist71" speed="5.151002" pos="23.770044" lane="24540242#1_0" slope="0.000000"/>
    </timestep>
    <timestep time="8.00">
        <vehicle id="flow_2.0" x="13.414861" y="52.520243" angle="34.557237" type="vehDist71" speed="5.847373" pos="29.617417" lane="24540242#1_0" slope="0.000000"/>
    </timestep>
    <timestep time="9.00">
        <vehicle id="flow_2.0" x="13.414912" y="52.520291" angle="34.557237" type="vehDist71" speed="6.323446" pos="35.940863" lane="24540242#1_0" slope="0.000000"/>
    </timestep>
    <timestep time="10.00">
        <vehicle id="flow_2.0" x="13.414965" y="52.520340" angle="34.557237" type="vehDist71" speed="6.536383" pos="42.477247" lane="24540242#1_0" slope="0.000000"/>
    </timestep>
    <timestep time="11.00">
        <vehicle id="flow_2.0" x="13.415019" y="52.520390" angle="34.557237" type="vehDist71" speed="6.661912" pos="49.139159" lane="24540242#1_0" slope="0.000000"/>
    </timestep>
    <timestep time="12.00">
        <vehicle id="flow_2.0" x="13.415071" y="52.520439" angle="34.557237" type="vehDist71" speed="6.500916" pos="55.640075" lane="24540242#1_0" slope="0.000000"/>
    </timestep>
    <timestep time="13.00">
        <vehicle id="flow_2.0" x="13.415126" y="52.520489" angle="34.557237" type="vehDist71" speed="6.738177" pos="62.378251" lane="24540242#1_0" slope="0.000000"/>
    </timestep>
    <timestep time="14.00">
        <vehicle id="flow_2.0" x="13.415179" y="52.520539" angle="34.557237" type="vehDist71" speed="6.619263" pos="68.997514" lane="24540242#1_0" slope="0.000000"/>
    </timestep>
    <timestep time="15.00">
        <vehicle id="flow_2.0" x="13.415230" y="52.520586" angle="34.557237" type="vehDist71" speed="6.306317" pos="75.303831" lane="24540242#1_0" slope="0.000000"/>
    </timestep>
    <timestep time="16.00">
        <vehicle id="flow_2.0" x="13.415281" y="52.520634" angle="34.557237" type="vehDist71" speed="6.285605" pos="81.589436" lane="24540242#1_0" slope="0.000000"/>
    </timestep>
    <timestep time="17.00">
        <vehicle id="flow_2.0" x="13.415335" y="52.520684" angle="34.557237" type="vehDist71" speed="6.686437" pos="88.275873" lane="24540242#1_0" slope="0.000000"/>
    </timestep>
    <timestep time="18.00">
        <vehicle id="flow_2.0" x="13.415387" y="52.520732" angle="34.557237" type="vehDist71" speed="6.366913" pos="94.642786" lane="24540242#1_0" slope="0.000000"/>
    </timestep>
    <timestep time="19.00">
        <vehicle id="flow_2.0" x="13.415438" y="52.520779" angle="34.557237" type="vehDist71" speed="6.306379" pos="100.949165" lane="24540242#1_0" slope="0.000000"/>
    </timestep>
    <timestep time="20.00">
        <vehicle id="flow_2.0" x="13.415492" y="52.520830" angle="34.557237" type="vehDist71" speed="6.735870" pos="107.685036" lane="24540242#1_0" slope="0.000000"/>
    </timestep>
    <timestep time="21.00">
        <vehicle id="flow_2.0" x="13.415544" y="52.520877" angle="34.557237" type="vehDist71" speed="6.356258" pos="114.041293" lane="24540242#1_0" slope="0.000000"/>
    </timestep>
    <timestep time="22.00">
        <vehicle id="flow_2.0" x="13.415598" y="52.520928" angle="34.557237" type="vehDist71" speed="6.673546" pos="120.714840" lane="24540242#1_0" slope="0.000000"/>
    </timestep>
    <timestep time="23.00">
        <vehicle id="flow_2.0" x="13.415652" y="52.520978" angle="34.557237" type="vehDist71" speed="6.697100" pos="127.411939" lane="24540242#1_0" slope="0.000000"/>
    </timestep>
    <timestep time="24.00">
        <vehicle id="flow_2.0" x="13.415707" y="52.521029" angle="34.557237" type="vehDist71" speed="6.792999" pos="134.204938" lane="24540242#1_0" slope="0.000000"/>
    </timestep>
    <timestep time="25.00">
        <vehicle id="flow_2.0" x="13.415761" y="52.521079" angle="34.557237" type="vehDist71" speed="6.681772" pos="140.886710" lane="24540242#1_0" slope="0.000000"/>
    </timestep>
    <timestep time="26.00">
        <vehicle id="flow_2.0" x="13.415815" y="52.521129" angle="34.557237" type="vehDist71" speed="6.662428" pos="147.549138" lane="24540242#1_0" slope="0.000000"/>
    </timestep>
    <timestep time="27.00">
        <vehicle id="flow_2.0" x="13.415867" y="52.521177" angle="34.557237" type="vehDist71" speed="6.411452" pos="153.960590" lane="24540242#1_0" slope="0.000000"/>
    </timestep>
    <timestep time="28.00">
        <vehicle id="flow_2.0" x="13.415922" y="52.521228" angle="34.557237" type="vehDist71" speed="6.787992" pos="160.748582" lane="24540242#1_0" slope="0.000000"/>
    </timestep>
    <timestep time="29.00">
        <vehicle id="flow_2.0" x="13.415978" y="52.521278" angle="40.991514" type="vehDist71" speed="6.726915" pos="0.895496" lane=":1986668243_0_0" slope="0.000000"/>
    </timestep>
    <timestep time="30.00">
        <vehicle id="flow_2.0" x="13.416061" y="52.521309" angle="49.810886" type="vehDist71" speed="6.636460" pos="7.531956" lane=":1986668243_0_0" slope="0.000000"/>
    </timestep>
    <timestep time="31.00">
        <vehicle id="flow_2.0" x="13.416117" y="52.521357" angle="34.378470" type="vehDist71" speed="6.559718" pos="5.421674" lane="188044903#0_0" slope="0.000000"/>
    </timestep>
    <timestep time="32.00">
        <vehicle id="flow_2.0" x="13.416170" y="52.521407" angle="34.378470" type="vehDist71" speed="6.603043" pos="12.024717" lane="188044903#0_0" slope="0.000000"/>
    </timestep>
    <timestep time="33.00">
        <vehicle id="flow_2.0" x="13.416224" y="52.521458" angle="34.378470" type="vehDist71" speed="6.730361" pos="18.755078" lane="188044903#0_0" slope="0.000000"/>
    </timestep>
    <timestep time="34.00">
        <vehicle id="flow_2.0" x="13.416276" y="52.521507" angle="34.378470" type="vehDist71" speed="6.483204" pos="25.238282" lane="188044903#0_0" slope="0.000000"/>
    </timestep>
    <timestep time="35.00">
        <vehicle id="flow_2.0" x="13.416327" y="52.521554" angle="34.813499" type="vehDist71" speed="6.599119" pos="4.997402" lane="188044903#1_0" slope="0.000000"/>
    </timestep>
    <timestep time="36.00">
        <vehicle id="flow_2.0" x="13.416385" y="52.521607" angle="34.813499" type="vehDist71" speed="6.799000" pos="12.442949" lane="188044903#1_0" slope="0.000000"/>
    </timestep>
    <timestep time="37.00">
        <vehicle id="flow_2.0" x="13.416430" y="52.521649" angle="34.813499" type="vehDist71" speed="4.299000" pos="18.262734" lane="188044903#1_0" slope="0.000000"/>
    </timestep>
    <timestep time="38.00">
        <vehicle id="flow_2.0" x="13.416459" y="52.521675" angle="34.813499" type="vehDist71" speed="2.799000" pos="21.984920" lane="188044903#1_0" slope="0.000000"/>
    </timestep>
    <timestep time="39.00">
        <vehicle id="flow_2.0" x="13.416476" y="52.521691" angle="34.813499" type="vehDist71" speed="1.299000" pos="24.133909" lane="188044903#1_0" slope="0.000000"/>
    </timestep>
    <timestep time="40.00">
        <vehicle id="flow_2.0" x="13.416485" y="52.521699" angle="349.813499" type="vehDist71" speed="0.235091" pos="25.270000" lane="188044903#1_0" slope="0.000000"/>
        <vehicle id="flow_2.1" x="13.414635" y="52.520033" angle="34.557237" type="vehDist4" speed="0.000000" pos="1.700000" lane="24540242#1_0" slope="0.000000"/>
    </timestep>
    <timestep time="41.00">
        <vehicle id="flow_2.0" x="13.416485" y="52.521699" angle="349.813499" type="vehDist71" speed="0.000000" pos="25.270000" lane="188044903#1_0" slope="0.000000"/>
        <vehicle id="flow_2.1" x="13.414640" y="52.520038" angle="34.557237" type="vehDist4" speed="0.579542" pos="2.279542" lane="24540242#1_0" slope="0.000000"/>
    </timestep>
    <timestep time="42.00">
        <vehicle id="flow_2.0" x="13.416485" y="52.521699" angle="349.813499" type="vehDist71" speed="0.000000" pos="25.270000" lane="188044903#1_0" slope="0.000000"/>
        <vehicle id="flow_2.1" x="13.414651" y="52.520048" angle="34.557237" type="vehDist4" speed="1.370229" pos="3.649771" lane="24540242#1_0" slope="0.000000"/>
    </timestep>
    <timestep time="43.00">
        <vehicle id="flow_2.0" x="13.416485" y="52.521699" angle="349.813499" type="vehDist71" speed="0.000000" pos="25.270000" lane="188044903#1_0" slope="0.000000"/>
        <vehicle id="flow_2.1" x="13.414666" y="52.520062" angle="34.557237" type="vehDist4" speed="1.915426" pos="5.565197" lane="24540242#1_0" slope="0.000000"/>
    </timestep>
    <timestep time="44.00">
        <vehicle id="flow_2.0" x="13.416485" y="52.521699" angle="349.813499" type="vehDist71" speed="0.000000" pos="25.270000" lane="188044903#1_0" slope="0.000000"/>
        <vehicle id="flow_2.1" x="13.414687" y="52.520082" angle="34.557237" type="vehDist4" speed="2.637518" pos="8.202715" lane="24540242#1_0" slope="0.000000"/>
    </timestep>
    <timestep time="45.00">
        <vehicle id="flow_2.0" x="13.416485" y="52.521699" angle="349.813499" type="vehDist71" speed="0.000000" pos="25.270000" lane="188044903#1_0" slope="0.000000"/>
        <vehicle id="flow_2.1" x="13.414714" y="52.520107" angle="34.557237" type="vehDist4" speed="3.259220" pos="11.461935" lane="24540242#1_0" slope="0.000000"/>
    </timestep>
    <timestep time="46.00">
        <vehicle id="flow_2.0" x="13.416486" y="52.521703" angle="349.813499" type="vehDist71" speed="1.000000" pos="0.390067" lane=":junc_01_19_0" slope="0.000000"/>
        <vehicle id="flow_2.1" x="13.414746" y="52.520137" angle="34.557237" type="vehDist4" speed="3.995694" pos="15.457629" lane="24540242#1_0" slope="0.000000"/>
    </timestep>
    <timestep time="47.00">
        <vehicle id="flow_2.0" x="13.416489" y="52.521715" angle="34.813499" type="vehDist71" speed="2.000000" pos="1.728389" lane=":junc_01_19_0" slope="0.000000"/>
        <vehicle id="flow_2.1" x="13.414784" y="52.520172" angle="34.557237" type="vehDist4" speed="4.653449" pos="20.111079" lane="24540242#1_0" slope="0.000000"/>
    </timestep>
    <timestep time="48.00">
        <vehicle id="flow_2.0" x="13.416513" y="52.521726" angle="49.813499" type="vehDist71" speed="2.000000" pos="3.479749" lane=":junc_01_18_0" slope="0.000000"/>
        <vehicle id="flow_2.1" x="13.414825" y="52.520210" angle="34.557237" type="vehDist4" speed="5.070160" pos="25.181238" lane="24540242#1_0" slope="0.000000"/>
    </timestep>
    <timestep time="49.00">
        <vehicle id="flow_2.0" x="13.416534" y="52.521747" angle="34.813499" type="vehDist71" speed="3.061000" pos="6.228479" lane=":junc_01_18_0" slope="0.000000"/>
        <vehicle id="flow_2.1" x="13.414870" y="52.520252" angle="34.557237" type="vehDist4" speed="5.592699" pos="30.773938" lane="24540242#1_0" slope="0.000000"/>
    </timestep>
    <timestep time="50.00">
        <vehicle id="flow_2.0" x="13.416564" y="52.521776" angle="34.813499" type="vehDist71" speed="4.122000" pos="10.037718" lane=":junc_01_18_0" slope="0.000000"/>
        <vehicle id="flow_2.1" x="13.414917" y="52.520295" angle="34.557237" type="vehDist4" speed="5.807871" pos="36.581809" lane="24540242#1_0" slope="0.000000"/>
    </timestep>
    <timestep time="51.00">
        <vehicle id="flow_2.0" x="13.416602" y="52.521813" angle="34.813499" type="vehDist71" speed="5.183000" pos="14.907467" lane=":junc_01_18_0" slope="0.000000"/>
        <vehicle id="flow_2.1" x="13.414965" y="52.520340" angle="34.557237" type="vehDist4" speed="5.929502" pos="42.511311" lane="24540242#1_0" slope="0.000000"/>
    </timestep>
    <timestep time="52.00">
        <vehicle id="flow_2.0" x="13.416647" y="52.521859" angle="34.813499" type="vehDist71" speed="6.244000" pos="20.826881" lane=":junc_01_18_0" slope="0.000000"/>
        <vehicle id="flow_2.1" x="13.415014" y="52.520385" angle="34.557237" type="vehDist4" speed="5.998546" pos="48.509857" lane="24540242#1_0" slope="0.000000"/>
    </timestep>
    <timestep time="53.00">
        <vehicle id="flow_2.0" x="13.416690" y="52.521906" angle="34.813499" type="vehDist71" speed="5.744000" pos="26.799313" lane=":junc_01_18_0" slope="0.000000"/>
        <vehicle id="flow_2.1" x="13.415060" y="52.520428" angle="34.557237" type="vehDist4" speed="5.694295" pos="54.204151" lane="24540242#1_0" slope="0.000000"/>
    </timestep>
    <timestep time="54.00">
        <vehicle id="flow_2.0" x="13.416728" y="52.521949" angle="34.813499" type="vehDist71" speed="5.244000" pos="32.273543" lane=":junc_01_18_0" slope="0.000000"/>
        <vehicle id="flow_2.1" x="13.415105" y="52.520470" angle="34.557237" type="vehDist4" speed="5.657389" pos="59.861540" lane="24540242#1_0" slope="0.000000"/>
    </timestep>
    <timestep time="55.00">
        <vehicle id="flow_2.0" x="13.416761" y="52.521986" angle="34.813499" type="vehDist71" speed="4.244000" pos="36.984483" lane=":junc_01_18_0" slope="0.000000"/>
        <vehicle id="flow_2.1" x="13.415152" y="52.520513" angle="34.557237" type="vehDist4" speed="5.702845" pos="65.564386" lane="24540242#1_0" slope="0.000000"/>
    </timestep>
    <timestep time="56.00">
        <vehicle id="flow_2.0" x="13.416787" y="52.522018" angle="19.813499" type="vehDist71" speed="3.744000" pos="40.939228" lane=":junc_01_18_0" slope="0.000000"/>
        <vehicle id="flow_2.1" x="13.415198" y="52.520557" angle="34.557237" type="vehDist4" speed="5.777584" pos="71.341969" lane="24540242#1_0" slope="0.000000"/>
    </timestep>
    <timestep time="57.00">
        <vehicle id="flow_2.0" x="13.416808" y="52.522044" angle="19.813499" type="vehDist71" speed="2.744000" pos="44.151344" lane=":junc_01_18_0" slope="0.000000"/>
        <vehicle id="flow_2.1" x="13.415246" y="52.520601" angle="34.557237" type="vehDist4" speed="5.943500" pos="77.285469" lane="24540242#1_0" slope="0.000000"/>
    </timestep>
    <timestep time="58.00">
        <vehicle id="flow_2.0" x="13.416825" y="52.522064" angle="19.813499" type="vehDist71" speed="2.244000" pos="46.620832" lane=":junc_01_18_0" slope="0.000000"/>
        <vehicle id="flow_2.1" x="13.415294" y="52.520646" angle="34.557237" type="vehDist4" speed="5.932648" pos="83.218117" lane="24540242#1_0" slope="0.000000"/>
    </timestep>
    <timestep time="59.00">
        <vehicle id="flow_2.0" x="13.416836" y="52.522078" angle="19.813499" type="vehDist71" speed="1.244000" pos="48.347692" lane=":junc_01_18_0" slope="0.000000"/>
        <vehicle id="flow_2.1" x="13.415341" y="52.520689" angle="34.557237" type="vehDist4" speed="5.708115" pos="88.926232" lane="24540242#1_0" slope="0.000000"/>
    </timestep>
    <timestep time="60.00">
        <vehicle id="flow_2.0" x="13.416841" y="52.522084" angle="19.813499" type="vehDist71" speed="0.244000" pos="49.083594" lane=":junc_01_18_0" slope="0.000000"/>
        <vehicle id="flow_2.1" x="13.415388" y="52.520733" angle="34.557237" type="vehDist4" speed="5.920568" pos="94.846800" lane="24540242#1_0" slope="0.000000"/>
    </timestep>
    <timestep time="61.00">
        <vehicle id="flow_2.0" x="13.416842" y="52.522085" angle="4.813499" type="vehDist71" speed="0.244000" pos="49.307440" lane=":junc_01_18_0" slope="0.000000"/>
        <vehicle id="flow_2.1" x="13.415437" y="52.520778" angle="34.557237" type="vehDist4" speed="5.978584" pos="100.825383" lane="24540242#1_0" slope="0.000000"/>
    </timestep>
    <timestep time="62.00">
        <vehicle id="flow_2.0" x="13.416840" y="52.522087" angle="319.813499" type="vehDist71" speed="0.244000" pos="19.176346" lane=":junc_01_9_0" slope="0.000000"/>
        <vehicle id="flow_2.1" x="13.415483" y="52.520821" angle="34.557237" type="vehDist4" speed="5.678638" pos="106.504022" lane="24540242#1_0" slope="0.000000"/>
    </timestep>
    <timestep time="63.00">
        <vehicle id="flow_2.0" x="13.416840" y="52.522087" angle="274.813499" type="vehDist71" speed="0.000000" pos="19.176346" lane=":junc_01_9_0" slope="0.000000"/>
        <vehicle id="flow_2.1" x="13.415529" y="52.520864" angle="34.557237" type="vehDist4" speed="5.719175" pos="112.223197" lane="24540242#1_0" slope="0.000000"/>
    </timestep>
    <timestep time="64.00">
        <vehicle id="flow_2.0" x="13.416840" y="52.522087" angle="274.813499" type="vehDist71" speed="0.000000" pos="19.176346" lane=":junc_01_9_0" slope="0.000000"/>
        <vehicle id="flow_2.1" x="13.415577" y="52.520908" angle="34.557237" type="vehDist4" speed="5.878153" pos="118.101350" lane="24540242#1_0" slope="0.000000"/>
    </timestep>
    <timestep time="65.00">
        <vehicle id="flow_2.0" x="13.416840" y="52.522087" angle="274.813499" type="vehDist71" speed="0.000000" pos="19.176346" lane=":junc_01_9_0" slope="0.000000"/>
        <vehicle id="flow_2.1" x="13.415624" y="52.520951" angle="34.557237" type="vehDist4" speed="5.799712" pos="123.901062" lane="24540242#1_0" slope="0.000000"/>
    </timestep>
    <timestep time="66.00">
        <vehicle id="flow_2.0" x="13.416840" y="52.522087" angle="274.813499" type="vehDist71" speed="0.000000" pos="19.176346" lane=":junc_01_9_0" slope="0.000000"/>
        <vehicle id="flow_2.1" x="13.415670" y="52.520995" angle="34.557237" type="vehDist4" speed="5.802489" pos="129.703550" lane="24540242#1_0" slope="0.000000"/>
    </timestep>
    <timestep time="67.00">
        <vehicle id="flow_2.0" x="13.416840" y="52.522087" angle="274.813499" type="vehDist71" speed="0.000000" pos="19.176346" lane=":junc_01_9_0" slope="0.000000"/>
        <vehicle id="flow_2.1" x="13.415718" y="52.521039" angle="34.557237" type="vehDist4" speed="5.893933" pos="135.597483" lane="24540242#1_0" slope="0.000000"/>
    </timestep>
    <timestep time="68.00">
        <vehicle id="flow_2.0" x="13.416840" y="52.522087" angle="274.813499" type="vehDist71" speed="0.000000" pos="19.176346" lane=":junc_01_9_0" slope="0.000000"/>
        <vehicle id="flow_2.1" x="13.415766" y="52.521084" angle="34.557237" type="vehDist4" speed="5.875780" pos="141.473264" lane="24540242#1_0" slope="0.000000"/>
    </timestep>
    <timestep time="69.00">
        <vehicle id="flow_2.0" x="13.416840" y="52.522087" angle="274.813499" type="vehDist71" speed="0.000000" pos="19.176346" lane=":junc_01_9_0" slope="0.000000"/>
        <vehicle id="flow_2.1" x="13.415813" y="52.521128" angle="34.557237" type="vehDist4" speed="5.865955" pos="147.339219" lane="24540242#1_0" slope="0.000000"/>
    </timestep>
    <timestep time="70.00">
        <vehicle id="flow_2.0" x="13.416840" y="52.522087" angle="274.813499" type="vehDist71" speed="0.000000" pos="19.176346" lane=":junc_01_9_0" slope="0.000000"/>
        <vehicle id="flow_2.1" x="13.415860" y="52.521171" angle="34.557237" type="vehDist4" speed="5.769567" pos="153.108786" lane="24540242#1_0" slope="0.000000"/>
    </timestep>
    <timestep time="71.00">
        <vehicle id="flow_2.0" x="13.416840" y="52.522087" angle="274.813499" type="vehDist71" speed="0.000000" pos="19.176346" lane=":junc_01_9_0" slope="0.000000"/>
        <vehicle id="flow_2.1" x="13.415906" y="52.521214" angle="34.557237" type="vehDist4" speed="5.706913" pos="158.815699" lane="24540242#1_0" slope="0.000000"/>
    </timestep>
    <timestep time="72.00">
        <vehicle id="flow_2.0" x="13.416840" y="52.522087" angle="274.813499" type="vehDist71" speed="0.000000" pos="19.176346" lane=":junc_01_9_0" slope="0.000000"/>
        <vehicle id="flow_2.1" x="13.415954" y="52.521258" angle="34.557237" type="vehDist4" speed="5.895361" pos="164.711060" lane="24540242#1_0" slope="0.000000"/>
    </timestep>
    <timestep time="73.00">
        <vehicle id="flow_2.0" x="13.416840" y="52.522087" angle="274.813499" type="vehDist71" speed="0.000000" pos="19.176346" lane=":junc_01_9_0" slope="0.000000"/>
        <vehicle id="flow_2.1" x="13.416015" y="52.521293" angle="67.513763" type="vehDist4" speed="5.779622" pos="3.910682" lane=":1986668243_0_0" slope="0.000000"/>
    </timestep>
    <timestep time="74.00">
        <vehicle id="flow_2.0" x="13.416840" y="52.522087" angle="274.813499" type="vehDist71" speed="0.000000" pos="19.176346" lane=":junc_01_9_0" slope="0.000000"/>
        <vehicle id="flow_2.1" x="13.416083" y="52.521326" angle="36.717092" type="vehDist4" speed="6.039657" pos="1.280339" lane="188044903#0_0" slope="0.000000"/>
    </timestep>
    <timestep time="75.00">
        <vehicle id="flow_2.0" x="13.416840" y="52.522087" angle="274.813499" type="vehDist71" speed="0.000000" pos="19.176346" lane=":junc_01_9_0" slope="0.000000"/>
        <vehicle id="flow_2.1" x="13.416132" y="52.521372" angle="34.378470" type="vehDist4" speed="6.003276" pos="7.283615" lane="188044903#0_0" slope="0.000000"/>
    </timestep>
    <timestep time="76.00">
        <vehicle id="flow_2.0" x="13.416840" y="52.522087" angle="274.813499" type="vehDist71" speed="0.000000" pos="19.176346" lane=":junc_01_9_0" slope="0.000000"/>
        <vehicle id="flow_2.1" x="13.416180" y="52.521417" angle="34.378470" type="vehDist4" speed="6.014544" pos="13.298159" lane="188044903#0_0" slope="0.000000"/>
    </timestep>
    <timestep time="77.00">
        <vehicle id="flow_2.0" x="13.416840" y="52.522087" angle="274.813499" type="vehDist71" speed="0.000000" pos="19.176346" lane=":junc_01_9_0" slope="0.000000"/>
        <vehicle id="flow_2.1" x="13.416226" y="52.521460" angle="34.378470" type="vehDist4" speed="5.773845" pos="19.072004" lane="188044903#0_0" slope="0.000000"/>
    </timestep>
    <timestep time="78.00">
        <vehicle id="flow_2.0" x="13.416840" y="52.522087" angle="274.813499" type="vehDist71" speed="0.000000" pos="19.176346" lane=":junc_01_9_0" slope="0.000000"/>
        <vehicle id="flow_2.1" x="13.416275" y="52.521505" angle="34.378470" type="vehDist4" speed="6.003181" pos="25.075185" lane="188044903#0_0" slope="0.000000"/>
    </timestep>
    <timestep time="79.00">
        <vehicle id="flow_2.0" x="13.416840" y="52.522087" angle="274.813499" type="vehDist71" speed="0.000000" pos="19.176346" lane=":junc_01_9_0" slope="0.000000"/>
        <vehicle id="flow_2.1" x="13.416320" y="52.521547" angle="34.813499" type="vehDist4" speed="5.813805" pos="4.048990" lane="188044903#1_0" slope="0.000000"/>
    </timestep>
    <timestep time="80.00">
        <vehicle id="flow_2.0" x="13.416840" y="52.522087" angle="274.813499" type="vehDist71" speed="0.000000" pos="19.176346" lane=":junc_01_9_0" slope="0.000000"/>
        <vehicle id="flow_2.1" x="13.416371" y="52.521595" angle="34.813499" type="vehDist4" speed="6.043000" pos="10.670902" lane="188044903#1_0" slope="0.000000"/>
        <vehicle id="flow_2.2" x="13.414635" y="52.520033" angle="34.557237" type="vehDist49" speed="0.000000" pos="1.700000" lane="24540242#1_0" slope="0.000000"/>
    </timestep>
    <timestep time="81.00">
        <vehicle id="flow_2.0" x="13.416840" y="52.522087" angle="274.813499" type="vehDist71" speed="0.000000" pos="19.176346" lane=":junc_01_9_0" slope="0.000000"/>
        <vehicle id="flow_2.1" x="13.416415" y="52.521634" angle="34.813499" type="vehDist4" speed="4.543000" pos="16.222194" lane="188044903#1_0" slope="0.000000"/>
        <vehicle id="flow_2.2" x="13.414642" y="52.520040" angle="34.557237" type="vehDist49" speed="0.885232" pos="2.585232" lane="24540242#1_0" slope="0.000000"/>
    </timestep>
    <timestep time="82.00">
        <vehicle id="flow_2.0" x="13.416840" y="52.522087" angle="274.813499" type="vehDist71" speed="0.000000" pos="19.176346" lane=":junc_01_9_0" slope="0.000000"/>
        <vehicle id="flow_2.1" x="13.416445" y="52.521663" angle="34.813499" type="vehDist4" speed="3.043000" pos="20.200287" lane="188044903#1_0" slope="0.000000"/>
        <vehicle id="flow_2.2" x="13.414654" y="52.520051" angle="34.557237" type="vehDist49" speed="1.434832" pos="4.020064" lane="24540242#1_0" slope="0.000000"/>
    </timestep>
    <timestep time="83.00">
        <vehicle id="flow_2.0" x="13.416840" y="52.522087" angle="274.813499" type="vehDist71" speed="0.000000" pos="19.176346" lane=":junc_01_9_0" slope="0.000000"/>
        <vehicle id="flow_2.1" x="13.416466" y="52.521682" angle="34.813499" type="vehDist4" speed="2.043000" pos="22.867383" lane="188044903#1_0" slope="0.000000"/>
        <vehicle id="flow_2.2" x="13.414674" y="52.520069" angle="34.557237" type="vehDist49" speed="2.457254" pos="6.477318" lane="24540242#1_0" slope="0.000000"/>
    </timestep>
    <timestep time="84.00">
        <vehicle id="flow_2.0" x="13.416840" y="52.522087" angle="274.813499" type="vehDist71" speed="0.000000" pos="19.176346" lane=":junc_01_9_0" slope="0.000000"/>
        <vehicle id="flow_2.1" x="13.416473" y="52.521688" angle="34.813499" type="vehDist4" speed="0.831697" pos="23.699080" lane="188044903#1_0" slope="0.000000"/>
        <vehicle id="flow_2.2" x="13.414702" y="52.520096" angle="34.557237" type="vehDist49" speed="3.506244" pos="9.983562" lane="24540242#1_0" slope="0.000000"/>
    </timestep>
    <timestep time="85.00">
        <vehicle id="flow_2.0" x="13.416840" y="52.522087" angle="274.813499" type="vehDist71" speed="0.000000" pos="19.176346" lane=":junc_01_9_0" slope="0.000000"/>
        <vehicle id="flow_2.1" x="13.416473" y="52.521688" angle="34.813499" type="vehDist4" speed="0.000000" pos="23.699080" lane="188044903#1_0" slope="0.000000"/>
        <vehicle id="flow_2.2" x="13.414738" y="52.520129" angle="34.557237" type="vehDist49" speed="4.437015" pos="14.420576" lane="24540242#1_0" slope="0.000000"/>
    </timestep>
    <timestep time="86.00">
        <vehicle id="flow_2.0" x="13.416840" y="52.522087" angle="274.813499" type="vehDist71" speed="0.000000" pos="19.176346" lane=":junc_01_9_0" slope="0.000000"/>
        <vehicle id="flow_2.1" x="13.416473" y="52.521688" angle="34.813499" type="vehDist4" speed="0.000000" pos="23.699080" lane="188044903#1_0" slope="0.000000"/>
        <vehicle id="flow_2.2" x="13.414780" y="52.520168" angle="34.557237" type="vehDist49" speed="5.211960" pos="19.632537" lane="24540242#1_0" slope="0.000000"/>
    </timestep>
    <timestep time="87.00">
        <vehicle id="flow_2.0" x="13.416840" y="52.522087" angle="274.813499" type="vehDist71" speed="0.000000" pos="19.176346" lane=":junc_01_9_0" slope="0.000000"/>
        <vehicle id="flow_2.1" x="13.416473" y="52.521688" angle="34.813499" type="vehDist4" speed="0.000000" pos="23.699080" lane="188044903#1_0" slope="0.000000"/>
        <vehicle id="flow_2.2" x="13.414829" y="52.520214" angle="34.557237" type="vehDist49" speed="6.108954" pos="25.741491" lane="24540242#1_0" slope="0.000000"/>
    </timestep>
    <timestep time="88.00">
        <vehicle id="flow_2.0" x="13.416840" y="52.522087" angle="274.813499" type="vehDist71" speed="0.000000" pos="19.176346" lane=":junc_01_9_0" slope="0.000000"/>
        <vehicle id="flow_2.1" x="13.416473" y="52.521688" angle="34.813499" type="vehDist4" speed="0.000000" pos="23.699080" lane="188044903#1_0" slope="0.000000"/>
        <vehicle id="flow_2.2" x="13.414884" y="52.520265" angle="34.557237" type="vehDist49" speed="6.763194" pos="32.504686" lane="24540242#1_0" slope="0.000000"/>
    </timestep>
    <timestep time="89.00">
        <vehicle id="flow_2.0" x="13.416840" y="52.522087" angle="274.813499" type="vehDist71" speed="0.000000" pos="19.176346" lane=":junc_01_9_0" slope="0.000000"/>
        <vehicle id="flow_2.1" x="13.416473" y="52.521688" angle="34.813499" type="vehDist4" speed="0.000000" pos="23.699080" lane="188044903#1_0" slope="0.000000"/>
        <vehicle id="flow_2.2" x="13.414939" y="52.520316" angle="34.557237" type="vehDist49" speed="6.798489" pos="39.303174" lane="24540242#1_0" slope="0.000000"/>
    </timestep>
    <timestep time="90.00">