<?xml version="1.0" encoding="UTF-8"?>

<!-- generated on Wed Jun  2 09:17:41 2021 by Eclipse SUMO sumo Version v1_7_0+1228-0b1a97d77e
<configuration xmlns:xsi="http://www.w3.org/2001/XMLSchema-instance" xsi:noNamespaceSchemaLocation="http://sumo.dlr.de/xsd/sumoConfiguration.xsd">

    <input>
        <net-file value="alex_2_blunt.net.xml"/>
        <route-files value="alex_2.trips.xml"/>
    </input>

    <output>
        <fcd-output value="fcd_out.xml"/>
        <fcd-output.geo value="true"/>
    </output>

    <time>
        <begin value="0"/>
        <end value="8000"/>
    </time>

    <fcd_device>
        <device.fcd.explicit value="vehDist"/>
    </fcd_device>

</configuration>
-->

<fcd-export xmlns:xsi="http://www.w3.org/2001/XMLSchema-instance" xsi:noNamespaceSchemaLocation="http://sumo.dlr.de/xsd/fcd_file.xsd">
    <timestep time="0.00">
        <vehicle id="flow_2.0" x="13.415544" y="52.520882" angle="34.850711" type="vehDist71" speed="0.000000" pos="1.700000" lane="24540242#1_0" slope="0.000000"/>
    </timestep>
    <timestep time="1.00">
        <vehicle id="flow_2.0" x="13.415551" y="52.520889" angle="34.850711" type="vehDist71" speed="0.969329" pos="2.669329" lane="24540242#1_0" slope="0.000000"/>
    </timestep>
    <timestep time="2.00">
        <vehicle id="flow_2.0" x="13.415566" y="52.520902" angle="34.850711" type="vehDist71" speed="1.740673" pos="4.410002" lane="24540242#1_0" slope="0.000000"/>
    </timestep>
    <timestep time="3.00">
        <vehicle id="flow_2.0" x="13.415587" y="52.520922" angle="34.850711" type="vehDist71" speed="2.586339" pos="6.996341" lane="24540242#1_0" slope="0.000000"/>
    </timestep>
    <timestep time="4.00">
        <vehicle id="flow_2.0" x="13.415613" y="52.520945" angle="34.850711" type="vehDist71" speed="3.200867" pos="10.197208" lane="24540242#1_0" slope="0.000000"/>
    </timestep>
    <timestep time="5.00">
        <vehicle id="flow_2.0" x="13.415644" y="52.520974" angle="34.850711" type="vehDist71" speed="3.850310" pos="14.047518" lane="24540242#1_0" slope="0.000000"/>
    </timestep>
    <timestep time="6.00">
        <vehicle id="flow_2.0" x="13.415681" y="52.521009" angle="34.850711" type="vehDist71" speed="4.571524" pos="18.619042" lane="24540242#1_0" slope="0.000000"/>
    </timestep>
    <timestep time="7.00">
        <vehicle id="flow_2.0" x="13.415723" y="52.521047" angle="34.850711" type="vehDist71" speed="5.151002" pos="23.770044" lane="24540242#1_0" slope="0.000000"/>
    </timestep>
    <timestep time="8.00">
        <vehicle id="flow_2.0" x="13.415771" y="52.521091" angle="34.850711" type="vehDist71" speed="5.847373" pos="29.617417" lane="24540242#1_0" slope="0.000000"/>
    </timestep>
    <timestep time="9.00">
        <vehicle id="flow_2.0" x="13.415823" y="52.521138" angle="34.850711" type="vehDist71" speed="6.323446" pos="35.940863" lane="24540242#1_0" slope="0.000000"/>
    </timestep>
    <timestep time="10.00">
        <vehicle id="flow_2.0" x="13.415876" y="52.521187" angle="34.850711" type="vehDist71" speed="6.536383" pos="42.477247" lane="24540242#1_0" slope="0.000000"/>
    </timestep>
    <timestep time="11.00">
        <vehicle id="flow_2.0" x="13.415930" y="52.521237" angle="34.850711" type="vehDist71" speed="6.661912" pos="49.139159" lane="24540242#1_0" slope="0.000000"/>
    </timestep>
    <timestep time="12.00">
        <vehicle id="flow_2.0" x="13.415988" y="52.521284" angle="46.123303" type="vehDist71" speed="6.500916" pos="1.830075" lane=":1986668243_0_0" slope="0.000000"/>
    </timestep>
    <timestep time="13.00">
        <vehicle id="flow_2.0" x="13.416071" y="52.521315" angle="45.802409" type="vehDist71" speed="6.636460" pos="8.466535" lane=":1986668243_0_0" slope="0.000000"/>
    </timestep>
    <timestep time="14.00">
        <vehicle id="flow_2.0" x="13.416124" y="52.521365" angle="34.378470" type="vehDist71" speed="6.559718" pos="6.356252" lane="188044903#0_0" slope="0.000000"/>
    </timestep>
    <timestep time="15.00">
        <vehicle id="flow_2.0" x="13.416177" y="52.521414" angle="34.378470" type="vehDist71" speed="6.603043" pos="12.959296" lane="188044903#0_0" slope="0.000000"/>
    </timestep>
    <timestep time="16.00">
        <vehicle id="flow_2.0" x="13.416231" y="52.521465" angle="34.378470" type="vehDist71" speed="6.730361" pos="19.689657" lane="188044903#0_0" slope="0.000000"/>
    </timestep>
    <timestep time="17.00">
        <vehicle id="flow_2.0" x="13.416284" y="52.521514" angle="34.378470" type="vehDist71" speed="6.483204" pos="26.172861" lane="188044903#0_0" slope="0.000000"/>
    </timestep>
    <timestep time="18.00">
        <vehicle id="flow_2.0" x="13.416335" y="52.521561" angle="34.813499" type="vehDist71" speed="6.599119" pos="5.931980" lane="188044903#1_0" slope="0.000000"/>
    </timestep>
    <timestep time="19.00">
        <vehicle id="flow_2.0" x="13.416386" y="52.521608" angle="34.813499" type="vehDist71" speed="6.560266" pos="12.492246" lane="188044903#1_0" slope="0.000000"/>
    </timestep>
    <timestep time="20.00">
        <vehicle id="flow_2.0" x="13.416436" y="52.521654" angle="34.813499" type="vehDist71" speed="6.481891" pos="18.974138" lane="188044903#1_0" slope="0.000000"/>
    </timestep>
    <timestep time="21.00">
        <vehicle id="flow_2.0" x="13.416465" y="52.521681" angle="34.813499" type="vehDist71" speed="3.761796" pos="22.735934" lane="188044903#1_0" slope="0.000000"/>
    </timestep>
    <timestep time="22.00">
        <vehicle id="flow_2.0" x="13.416477" y="52.521692" angle="34.813499" type="vehDist71" speed="1.561517" pos="24.297451" lane="188044903#1_0" slope="0.000000"/>
    </timestep>
    <timestep time="23.00">
        <vehicle id="flow_2.0" x="13.416478" y="52.521692" angle="34.813499" type="vehDist71" speed="0.039760" pos="24.337211" lane="188044903#1_0" slope="0.000000"/>
    </timestep>
    <timestep time="24.00">
        <vehicle id="flow_2.0" x="13.416478" y="52.521692" angle="34.813499" type="vehDist71" speed="0.021571" pos="24.358782" lane="188044903#1_0" slope="0.000000"/>
    </timestep>
    <timestep time="25.00">
        <vehicle id="flow_2.0" x="13.416478" y="52.521692" angle="34.813499" type="vehDist71" speed="0.005618" pos="24.364400" lane="188044903#1_0" slope="0.000000"/>
    </timestep>
    <timestep time="26.00">
        <vehicle id="flow_2.0" x="13.416478" y="52.521692" angle="34.813499" type="vehDist71" speed="0.003405" pos="24.367805" lane="188044903#1_0" slope="0.000000"/>
    </timestep>
    <timestep time="27.00">
        <vehicle id="flow_2.0" x="13.416478" y="52.521692" angle="34.813499" type="vehDist71" speed="0.000989" pos="24.368794" lane="188044903#1_0" slope="0.000000"/>
    </timestep>
    <timestep time="28.00">
        <vehicle id="flow_2.0" x="13.416478" y="52.521692" angle="34.813499" type="vehDist71" speed="0.000121" pos="24.368915" lane="188044903#1_0" slope="0.000000"/>
    </timestep>
    <timestep time="29.00">
        <vehicle id="flow_2.0" x="13.416478" y="52.521692" angle="34.813499" type="vehDist71" speed="0.000000" pos="24.368915" lane="188044903#1_0" slope="0.000000"/>
    </timestep>
    <timestep time="30.00">
        <vehicle id="flow_2.0" x="13.416478" y="52.521692" angle="34.813499" type="vehDist71" speed="0.000000" pos="24.368915" lane="188044903#1_0" slope="0.000000"/>
    </timestep>
    <timestep time="31.00">
        <vehicle id="flow_2.0" x="13.416478" y="52.521692" angle="34.813499" type="vehDist71" speed="0.000000" pos="24.368915" lane="188044903#1_0" slope="0.000000"/>
    </timestep>
    <timestep time="32.00">
        <vehicle id="flow_2.0" x="13.416478" y="52.521692" angle="34.813499" type="vehDist71" speed="0.000000" pos="24.368915" lane="188044903#1_0" slope="0.000000"/>
    </timestep>
    <timestep time="33.00">
        <vehicle id="flow_2.0" x="13.416478" y="52.521692" angle="34.813499" type="vehDist71" speed="0.000000" pos="24.368915" lane="188044903#1_0" slope="0.000000"/>
    </timestep>
    <timestep time="34.00">
        <vehicle id="flow_2.0" x="13.416478" y="52.521692" angle="34.813499" type="vehDist71" speed="0.000000" pos="24.368915" lane="188044903#1_0" slope="0.000000"/>
    </timestep>
    <timestep time="35.00">
        <vehicle id="flow_2.0" x="13.416478" y="52.521692" angle="34.813499" type="vehDist71" speed="0.000000" pos="24.368915" lane="188044903#1_0" slope="0.000000"/>
    </timestep>
    <timestep time="36.00">
        <vehicle id="flow_2.0" x="13.416478" y="52.521692" angle="34.813499" type="vehDist71" speed="0.000000" pos="24.368915" lane="188044903#1_0" slope="0.000000"/>
    </timestep>
    <timestep time="37.00">
        <vehicle id="flow_2.0" x="13.416478" y="52.521692" angle="34.813499" type="vehDist71" speed="0.000000" pos="24.368915" lane="188044903#1_0" slope="0.000000"/>
    </timestep>
    <timestep time="38.00">
        <vehicle id="flow_2.0" x="13.416478" y="52.521692" angle="34.813499" type="vehDist71" speed="0.000000" pos="24.368915" lane="188044903#1_0" slope="0.000000"/>
    </timestep>
    <timestep time="39.00">
        <vehicle id="flow_2.0" x="13.416478" y="52.521692" angle="34.813499" type="vehDist71" speed="0.000000" pos="24.368915" lane="188044903#1_0" slope="0.000000"/>
    </timestep>
    <timestep time="40.00">
        <vehicle id="flow_2.0" x="13.416478" y="52.521692" angle="34.813499" type="vehDist71" speed="0.000000" pos="24.368915" lane="188044903#1_0" slope="0.000000"/>
        <vehicle id="flow_2.1" x="13.415544" y="52.520882" angle="34.850711" type="vehDist4" speed="0.000000" pos="1.700000" lane="24540242#1_0" slope="0.000000"/>
    </timestep>
    <timestep time="41.00">
        <vehicle id="flow_2.0" x="13.416478" y="52.521692" angle="34.813499" type="vehDist71" speed="0.000000" pos="24.368915" lane="188044903#1_0" slope="0.000000"/>
        <vehicle id="flow_2.1" x="13.415550" y="52.520887" angle="34.850711" type="vehDist4" speed="0.755081" pos="2.455081" lane="24540242#1_0" slope="0.000000"/>
    </timestep>
    <timestep time="42.00">
        <vehicle id="flow_2.0" x="13.416478" y="52.521692" angle="34.813499" type="vehDist71" speed="0.000000" pos="24.368915" lane="188044903#1_0" slope="0.000000"/>
        <vehicle id="flow_2.1" x="13.415561" y="52.520898" angle="34.850711" type="vehDist4" speed="1.420389" pos="3.875470" lane="24540242#1_0" slope="0.000000"/>
    </timestep>
    <timestep time="43.00">
        <vehicle id="flow_2.0" x="13.416478" y="52.521692" angle="34.813499" type="vehDist71" speed="0.000000" pos="24.368915" lane="188044903#1_0" slope="0.000000"/>
        <vehicle id="flow_2.1" x="13.415576" y="52.520912" angle="34.850711" type="vehDist4" speed="1.849439" pos="5.724909" lane="24540242#1_0" slope="0.000000"/>
    </timestep>
    <timestep time="44.00">
        <vehicle id="flow_2.0" x="13.416478" y="52.521692" angle="34.813499" type="vehDist71" speed="0.000000" pos="24.368915" lane="188044903#1_0" slope="0.000000"/>
        <vehicle id="flow_2.1" x="13.415595" y="52.520929" angle="34.850711" type="vehDist4" speed="2.262852" pos="7.987762" lane="24540242#1_0" slope="0.000000"/>
    </timestep>
    <timestep time="45.00">
        <vehicle id="flow_2.0" x="13.416482" y="52.521697" angle="34.813499" type="vehDist71" speed="0.575172" pos="24.944088" lane="188044903#1_0" slope="0.000000"/>
        <vehicle id="flow_2.1" x="13.415619" y="52.520951" angle="34.850711" type="vehDist4" speed="2.978873" pos="10.966635" lane="24540242#1_0" slope="0.000000"/>
    </timestep>
    <timestep time="46.00">
        <vehicle id="flow_2.0" x="13.416487" y="52.521707" angle="20.177737" type="vehDist71" speed="1.277800" pos="0.851887" lane=":junc_01_19_0" slope="0.000000"/>
        <vehicle id="flow_2.1" x="13.415647" y="52.520977" angle="34.850711" type="vehDist4" speed="3.453670" pos="14.420304" lane="24540242#1_0" slope="0.000000"/>
    </timestep>
    <timestep time="47.00">
        <vehicle id="flow_2.0" x="13.416491" y="52.521727" angle="7.963060" type="vehDist71" speed="2.252778" pos="3.104665" lane=":junc_01_19_0" slope="0.000000"/>
        <vehicle id="flow_2.1" x="13.415679" y="52.521006" angle="34.850711" type="vehDist4" speed="3.882767" pos="18.303071" lane="24540242#1_0" slope="0.000000"/>
    </timestep>
    <timestep time="48.00">
        <vehicle id="flow_2.0" x="13.416496" y="52.521752" angle="7.963060" type="vehDist71" speed="2.800091" pos="5.904756" lane=":junc_01_19_0" slope="0.000000"/>
        <vehicle id="flow_2.1" x="13.415717" y="52.521041" angle="34.850711" type="vehDist4" speed="4.636107" pos="22.939178" lane="24540242#1_0" slope="0.000000"/>
    </timestep>
    <timestep time="49.00">
        <vehicle id="flow_2.0" x="13.416502" y="52.521784" angle="7.963060" type="vehDist71" speed="3.529338" pos="9.434094" lane=":junc_01_19_0" slope="0.000000"/>
        <vehicle id="flow_2.1" x="13.415758" y="52.521079" angle="34.850711" type="vehDist4" speed="5.102860" pos="28.042038" lane="24540242#1_0" slope="0.000000"/>
    </timestep>
    <timestep time="50.00">
        <vehicle id="flow_2.0" x="13.416505" y="52.521823" angle="356.890966" type="vehDist71" speed="4.384026" pos="13.818120" lane=":junc_01_19_0" slope="0.000000"/>
        <vehicle id="flow_2.1" x="13.415806" y="52.521123" angle="34.850711" type="vehDist4" speed="5.809148" pos="33.851186" lane="24540242#1_0" slope="0.000000"/>
    </timestep>
    <timestep time="51.00">
        <vehicle id="flow_2.0" x="13.416499" y="52.521868" angle="356.890966" type="vehDist71" speed="5.001683" pos="18.819804" lane=":junc_01_19_0" slope="0.000000"/>
        <vehicle id="flow_2.1" x="13.415854" y="52.521167" angle="34.850711" type="vehDist4" speed="5.966070" pos="39.817257" lane="24540242#1_0" slope="0.000000"/>
    </timestep>
    <timestep time="52.00">
        <vehicle id="flow_2.0" x="13.416492" y="52.521922" angle="356.890966" type="vehDist71" speed="6.044461" pos="24.864265" lane=":junc_01_19_0" slope="0.000000"/>
        <vehicle id="flow_2.1" x="13.415904" y="52.521212" angle="34.850711" type="vehDist4" speed="6.038470" pos="45.855726" lane="24540242#1_0" slope="0.000000"/>
    </timestep>
    <timestep time="53.00">
        <vehicle id="flow_2.0" x="13.416485" y="52.521978" angle="356.890966" type="vehDist71" speed="6.271978" pos="31.136243" lane=":junc_01_19_0" slope="0.000000"/>
        <vehicle id="flow_2.1" x="13.415952" y="52.521257" angle="34.850711" type="vehDist4" speed="5.954499" pos="51.810225" lane="24540242#1_0" slope="0.000000"/>
    </timestep>
    <timestep time="54.00">
        <vehicle id="flow_2.0" x="13.416471" y="52.522038" angle="351.635575" type="vehDist71" speed="6.742156" pos="37.878399" lane=":junc_01_19_0" slope="0.000000"/>
        <vehicle id="flow_2.1" x="13.416015" y="52.521293" angle="68.087868" type="vehDist4" speed="5.939895" pos="3.940120" lane=":1986668243_0_0" slope="0.000000"/>
    </timestep>
    <timestep time="55.00">
        <vehicle id="flow_2.0" x="13.416460" y="52.522076" angle="351.635575" type="vehDist71" speed="4.315905" pos="42.194304" lane=":junc_01_19_0" slope="0.000000"/>
        <vehicle id="flow_2.1" x="13.416083" y="52.521327" angle="36.478495" type="vehDist4" speed="6.039657" pos="1.309777" lane="188044903#0_0" slope="0.000000"/>
    </timestep>
    <timestep time="56.00">
        <vehicle id="flow_2.0" x="13.416448" y="52.522121" angle="351.639384" type="vehDist71" speed="5.017406" pos="3.021710" lane=":junc_01_40_0" slope="0.000000"/>
        <vehicle id="flow_2.1" x="13.416132" y="52.521372" angle="34.378470" type="vehDist4" speed="6.003276" pos="7.313053" lane="188044903#0_0" slope="0.000000"/>
    </timestep>
    <timestep time="57.00">
        <vehicle id="flow_2.0" x="13.416433" y="52.522173" angle="351.639384" type="vehDist71" speed="5.907691" pos="8.929402" lane=":junc_01_40_0" slope="0.000000"/>
        <vehicle id="flow_2.1" x="13.416180" y="52.521417" angle="34.378470" type="vehDist4" speed="6.014544" pos="13.327597" lane="188044903#0_0" slope="0.000000"/>
    </timestep>
    <timestep time="58.00">
        <vehicle id="flow_2.0" x="13.416401" y="52.522230" angle="341.325085" type="vehDist71" speed="6.733894" pos="15.663296" lane=":junc_01_40_0" slope="0.000000"/>
        <vehicle id="flow_2.1" x="13.416227" y="52.521460" angle="34.378470" type="vehDist4" speed="5.773845" pos="19.101442" lane="188044903#0_0" slope="0.000000"/>
    </timestep>
    <timestep time="59.00">
        <vehicle id="flow_2.0" x="13.416368" y="52.522286" angle="341.325085" type="vehDist71" speed="6.625367" pos="22.288663" lane=":junc_01_40_0" slope="0.000000"/>
        <vehicle id="flow_2.1" x="13.416275" y="52.521506" angle="34.378470" type="vehDist4" speed="6.003181" pos="25.104622" lane="188044903#0_0" slope="0.000000"/>
    </timestep>
    <timestep time="60.00">
        <vehicle id="flow_2.0" x="13.416301" y="52.522326" angle="307.760053" type="vehDist71" speed="6.307293" pos="6.265956" lane="47016365#1_0" slope="0.000000"/>
        <vehicle id="flow_2.1" x="13.416320" y="52.521547" angle="34.813499" type="vehDist4" speed="5.813805" pos="4.078428" lane="188044903#1_0" slope="0.000000"/>
    </timestep>
    <timestep time="61.00">
        <vehicle id="flow_2.0" x="13.416225" y="52.522360" angle="307.760053" type="vehDist71" speed="6.276197" pos="12.542153" lane="47016365#1_0" slope="0.000000"/>
        <vehicle id="flow_2.1" x="13.416365" y="52.521589" angle="34.813499" type="vehDist4" speed="5.821733" pos="9.900160" lane="188044903#1_0" slope="0.000000"/>
    </timestep>
    <timestep time="62.00">
        <vehicle id="flow_2.0" x="13.416145" y="52.522397" angle="307.760053" type="vehDist71" speed="6.758232" pos="19.300385" lane="47016365#1_0" slope="0.000000"/>
        <vehicle id="flow_2.1" x="13.416409" y="52.521630" angle="34.813499" type="vehDist4" speed="5.673570" pos="15.573730" lane="188044903#1_0" slope="0.000000"/>
    </timestep>
    <timestep time="63.00">
        <vehicle id="flow_2.0" x="13.416065" y="52.522433" angle="307.760053" type="vehDist71" speed="6.663088" pos="25.963473" lane="47016365#1_0" slope="0.000000"/>
        <vehicle id="flow_2.1" x="13.416454" y="52.521671" angle="34.813499" type="vehDist4" speed="5.743520" pos="21.317250" lane="188044903#1_0" slope="0.000000"/>
    </timestep>
    <timestep time="64.00">
        <vehicle id="flow_2.0" x="13.415987" y="52.522467" angle="307.760053" type="vehDist71" speed="6.468615" pos="32.432088" lane="47016365#1_0" slope="0.000000"/>
        <vehicle id="flow_2.1" x="13.416488" y="52.521714" angle="7.963060" type="vehDist4" speed="5.683189" pos="1.630438" lane=":junc_01_19_0" slope="0.000000"/>
    </timestep>
    <timestep time="65.00">
        <vehicle id="flow_2.0" x="13.415908" y="52.522503" angle="307.760053" type="vehDist71" speed="6.651563" pos="39.083651" lane="47016365#1_0" slope="0.000000"/>
        <vehicle id="flow_2.1" x="13.416499" y="52.521767" angle="7.963060" type="vehDist4" speed="5.912356" pos="7.542794" lane=":junc_01_19_0" slope="0.000000"/>
    </timestep>
    <timestep time="66.00">
        <vehicle id="flow_2.0" x="13.415826" y="52.522540" angle="307.760053" type="vehDist71" speed="6.793765" pos="45.877416" lane="47016365#1_0" slope="0.000000"/>
        <vehicle id="flow_2.1" x="13.416505" y="52.521819" angle="359.140907" type="vehDist4" speed="5.858400" pos="13.401194" lane=":junc_01_19_0" slope="0.000000"/>
    </timestep>
    <timestep time="67.00">
        <vehicle id="flow_2.0" x="13.415746" y="52.522576" angle="307.760053" type="vehDist71" speed="6.684014" pos="52.561430" lane="47016365#1_0" slope="0.000000"/>
        <vehicle id="flow_2.1" x="13.416499" y="52.521870" angle="356.890966" type="vehDist4" speed="5.684892" pos="19.086086" lane=":junc_01_19_0" slope="0.000000"/>
    </timestep>
    <timestep time="68.00">
        <vehicle id="flow_2.0" x="13.415667" y="52.522612" angle="307.760053" type="vehDist71" speed="6.590970" pos="59.152400" lane="47016365#1_0" slope="0.000000"/>
        <vehicle id="flow_2.1" x="13.416492" y="52.521924" angle="356.890966" type="vehDist4" speed="6.033949" pos="25.120034" lane=":junc_01_19_0" slope="0.000000"/>
    </timestep>
    <timestep time="69.00">
        <vehicle id="flow_2.0" x="13.415591" y="52.522646" angle="307.760053" type="vehDist71" speed="6.396054" pos="65.548454" lane="47016365#1_0" slope="0.000000"/>
        <vehicle id="flow_2.1" x="13.416485" y="52.521977" angle="356.890966" type="vehDist4" speed="5.853895" pos="30.973929" lane=":junc_01_19_0" slope="0.000000"/>
    </timestep>
    <timestep time="70.00">
        <vehicle id="flow_2.0" x="13.415515" y="52.522681" angle="307.760053" type="vehDist71" speed="6.305963" pos="71.854418" lane="47016365#1_0" slope="0.000000"/>
        <vehicle id="flow_2.1" x="13.416473" y="52.522029" angle="351.635575" type="vehDist4" speed="5.846712" pos="36.820641" lane=":junc_01_19_0" slope="0.000000"/>
    </timestep>
    <timestep time="71.00">
        <vehicle id="flow_2.0" x="13.415440" y="52.522715" angle="309.215262" type="vehDist71" speed="6.473855" pos="2.998272" lane="301241483#0_0" slope="0.000000"/>
        <vehicle id="flow_2.1" x="13.416461" y="52.522074" angle="351.635575" type="vehDist4" speed="5.119925" pos="41.940565" lane=":junc_01_19_0" slope="0.000000"/>
    </timestep>
    <timestep time="72.00">
        <vehicle id="flow_2.0" x="13.415366" y="52.522751" angle="309.909527" type="vehDist71" speed="6.457648" pos="1.355920" lane="301241483#2_0" slope="0.000000"/>
        <vehicle id="flow_2.1" x="13.416447" y="52.522123" angle="351.639384" type="vehDist4" speed="5.572292" pos="3.322857" lane=":junc_01_40_0" slope="0.000000"/>
    </timestep>
    <timestep time="73.00">
        <vehicle id="flow_2.0" x="13.415288" y="52.522789" angle="309.224345" type="vehDist71" speed="6.655252" pos="3.551172" lane="301241483#3_0" slope="0.000000"/>
        <vehicle id="flow_2.1" x="13.416433" y="52.522174" angle="351.639384" type="vehDist4" speed="5.671567" pos="8.994424" lane=":junc_01_40_0" slope="0.000000"/>
    </timestep>
    <timestep time="74.00">
        <vehicle id="flow_2.0" x="13.415209" y="52.522826" angle="308.713214" type="vehDist71" speed="6.744214" pos="3.185385" lane="728838409#0_0" slope="0.000000"/>
        <vehicle id="flow_2.1" x="13.416405" y="52.522224" angle="341.325085" type="vehDist4" speed="5.871900" pos="14.866324" lane=":junc_01_40_0" slope="0.000000"/>
    </timestep>
    <timestep time="75.00">
        <vehicle id="flow_2.0" x="13.415131" y="52.522863" angle="308.713214" type="vehDist71" speed="6.733390" pos="9.918775" lane="728838409#0_0" slope="0.000000"/>
        <vehicle id="flow_2.1" x="13.416375" y="52.522274" angle="341.325085" type="vehDist4" speed="5.918165" pos="20.784489" lane=":junc_01_40_0" slope="0.000000"/>
    </timestep>
    <timestep time="76.00">
        <vehicle id="flow_2.0" x="13.415053" y="52.522899" angle="308.713214" type="vehDist71" speed="6.638104" pos="16.556878" lane="728838409#0_0" slope="0.000000"/>
        <vehicle id="flow_2.1" x="13.416324" y="52.522316" angle="317.348676" type="vehDist4" speed="5.889194" pos="4.343684" lane="47016365#1_0" slope="0.000000"/>
    </timestep>
    <timestep time="77.00">
        <vehicle id="flow_2.0" x="13.414975" y="52.522936" angle="308.713214" type="vehDist71" speed="6.690364" pos="23.247242" lane="728838409#0_0" slope="0.000000"/>
        <vehicle id="flow_2.1" x="13.416254" y="52.522347" angle="307.760053" type="vehDist4" speed="5.816774" pos="10.160457" lane="47016365#1_0" slope="0.000000"/>
    </timestep>
    <timestep time="78.00">
        <vehicle id="flow_2.0" x="13.414899" y="52.522971" angle="308.713214" type="vehDist71" speed="6.458861" pos="29.706103" lane="728838409#0_0" slope="0.000000"/>
        <vehicle id="flow_2.1" x="13.416186" y="52.522378" angle="307.760053" type="vehDist4" speed="5.676159" pos="15.836617" lane="47016365#1_0" slope="0.000000"/>
    </timestep>
    <timestep time="79.00">
        <vehicle id="flow_2.1" x="13.416115" y="52.522410" angle="307.760053" type="vehDist4" speed="5.965938" pos="21.802555" lane="47016365#1_0" slope="0.000000"/>
    </timestep>
    <timestep time="80.00">
        <vehicle id="flow_2.1" x="13.416045" y="52.522441" angle="307.760053" type="vehDist4" speed="5.788990" pos="27.591545" lane="47016365#1_0" slope="0.000000"/>
        <vehicle id="flow_2.2" x="13.415544" y="52.520882" angle="34.850711" type="vehDist49" speed="0.000000" pos="1.700000" lane="24540242#1_0" slope="0.000000"/>
    </timestep>
    <timestep time="81.00">
        <vehicle id="flow_2.1" x="13.415974" y="52.522473" angle="307.760053" type="vehDist4" speed="5.948023" pos="33.539568" lane="47016365#1_0" slope="0.000000"/>
        <vehicle id="flow_2.2" x="13.415549" y="52.520887" angle="34.850711" type="vehDist49" speed="0.670913" pos="2.370913" lane="24540242#1_0" slope="0.000000"/>
    </timestep>
    <timestep time="82.00">
        <vehicle id="flow_2.1" x="13.415906" y="52.522504" angle="307.760053" type="vehDist4" speed="5.725362" pos="39.264930" lane="47016365#1_0" slope="0.000000"/>
        <vehicle id="flow_2.2" x="13.415563" y="52.520900" angle="34.850711" type="vehDist49" speed="1.716946" pos="4.087860" lane="24540242#1_0" slope="0.000000"/>
    </timestep>
    <timestep time="83.00">
        <vehicle id="flow_2.1" x="13.415834" y="52.522537" angle="307.760053" type="vehDist4" speed="5.962148" pos="45.227078" lane="47016365#1_0" slope="0.000000"/>
        <vehicle id="flow_2.2" x="13.415585" y="52.520920" angle="34.850711" type="vehDist49" speed="2.702133" pos="6.789993" lane="24540242#1_0" slope="0.000000"/>
    </timestep>
    <timestep time="84.00">
        <vehicle id="flow_2.1" x="13.415762" y="52.522569" angle="307.760053" type="vehDist4" speed="6.026217" pos="51.253295" lane="47016365#1_0" slope="0.000000"/>
        <vehicle id="flow_2.2" x="13.415613" y="52.520946" angle="34.850711" type="vehDist49" speed="3.466897" pos="10.256890" lane="24540242#1_0" slope="0.000000"/>
    </timestep>
    <timestep time="85.00">
        <vehicle id="flow_2.1" x="13.415690" y="52.522602" angle="307.760053" type="vehDist4" speed="5.996178" pos="57.249473" lane="47016365#1_0" slope="0.000000"/>
        <vehicle id="flow_2.2" x="13.415650" y="52.520980" angle="34.850711" type="vehDist49" speed="4.510287" pos="14.767177" lane="24540242#1_0" slope="0.000000"/>
    </timestep>
    <timestep time="86.00">
        <vehicle id="flow_2.1" x="13.415620" y="52.522633" angle="307.760053" type="vehDist4" speed="5.828262" pos="63.077735" lane="47016365#1_0" slope="0.000000"/>
        <vehicle id="flow_2.2" x="13.415693" y="52.521019" angle="34.850711" type="vehDist49" speed="5.229730" pos="19.996907" lane="24540242#1_0" slope="0.000000"/>
    </timestep>
    <timestep time="87.00">
        <vehicle id="flow_2.1" x="13.415551" y="52.522665" angle="307.760053" type="vehDist4" speed="5.815866" pos="68.893601" lane="47016365#1_0" slope="0.000000"/>
        <vehicle id="flow_2.2" x="13.415743" y="52.521065" angle="34.850711" type="vehDist49" speed="6.182603" pos="26.179510" lane="24540242#1_0" slope="0.000000"/>
    </timestep>
    <timestep time="88.00">
        <vehicle id="flow_2.1" x="13.415504" y="52.522686" angle="307.760053" type="vehDist4" speed="3.928161" pos="72.821762" lane="47016365#1_0" slope="0.000000"/>
        <vehicle id="flow_2.2" x="13.415797" y="52.521114" angle="34.850711" type="vehDist49" speed="6.568398" pos="32.747908" lane="24540242#1_0" slope="0.000000"/>
    </timestep>
    <timestep time="89.00">
        <vehicle id="flow_2.1" x="13.415493" y="52.522691" angle="307.760053" type="vehDist4" speed="0.928161" pos="73.749923" lane="47016365#1_0" slope="0.000000"/>
        <vehicle id="flow_2.2" x="13.415851" y="52.521165" angle="34.850711" type="vehDist49" speed="6.719851" pos="39.467759" lane="24540242#1_0" slope="0.000000"/>
    </timestep>
    <timestep time="90.00">
        <vehicle id="flow_2.1" x="13.415475" y="52.522699" angle="308.118630" type="vehDist4" speed="1.557910" pos="0.327833" lane=":1566942204_0_0" slope="0.000000"/>
        <vehicle id="flow_2.2" x="13.415905" y="52.521214" angle="34.850711" type="vehDist49" speed="6.615974" pos="46.083733" lane="24540242#1_0" slope="0.000000"/>
    </timestep>
    <timestep time="91.00">
        <vehicle id="flow_2.1" x="13.415450" y="52.522711" angle="309.215262" type="vehDist4" speed="2.194999" pos="2.172832" lane="301241483#0_0" slope="0.000000"/>
        <vehicle id="flow_2.2" x="13.415957" y="52.521261" angle="34.850711" type="vehDist49" speed="6.297892" pos="52.381625" lane="24540242#1_0" slope="0.000000"/>
    </timestep>
    <timestep time="92.00">
        <vehicle id="flow_2.1" x="13.415416" y="52.522727" angle="308.988761" type="vehDist4" speed="2.958068" pos="0.500899" lane="301241483#1_0" slope="0.000000"/>
        <vehicle id="flow_2.2" x="13.416030" y="52.521297" angle="69.999418" type="vehDist49" speed="6.437543" pos="5.009168" lane=":1986668243_0_0" slope="0.000000"/>
    </timestep>
    <timestep time="93.00">
        <vehicle id="flow_2.1" x="13.415374" y="52.522747" angle="309.940286" type="vehDist4" speed="3.599345" pos="0.630244" lane="301241483#2_0" slope="0.000000"/>
        <vehicle id="flow_2.2" x="13.416097" y="52.521339" angle="34.378470" type="vehDist49" speed="6.632728" pos="2.971896" lane="188044903#0_0" slope="0.000000"/>
    </timestep>
    <timestep time="94.00">
        <vehicle id="flow_2.1" x="13.415326" y="52.522771" angle="309.622517" type="vehDist4" speed="4.173178" pos="0.343423" lane="301241483#3_0" slope="0.000000"/>
        <vehicle id="flow_2.2" x="13.416147" y="52.521386" angle="34.378470" type="vehDist49" speed="6.277023" pos="9.248919" lane="188044903#0_0" slope="0.000000"/>
    </timestep>
    <timestep time="95.00">
        <vehicle id="flow_2.1" x="13.415272" y="52.522797" angle="309.224345" type="vehDist4" speed="4.642416" pos="4.985838" lane="301241483#3_0" slope="0.000000"/>